dump           1 all atom 10000  s20e500Ne10.dump
dump_modify    1 scale no image yes
dump           2 all custom 10000  s20e500Ne10.veldump vx vy vz

thermo_style   custom time etotal ke pe ebond eangle edihed eimp evdwl ecoul elong etail enthalpy temp press pxx pxy pxz pyy pyz pzz vol lx ly lz density f_2 v_Jxtime
thermo_modify  line multi
thermo         10000
thermo_modify  flush yes
restart        10000 s20e500Ne101.rst    s20e500Ne102.rst
run_style      respa 3 3 2 bond 1 angle 1 dihedral 2 pair 2 kspace 3
Respa levels:
  1 = bond angle
  2 = dihedral improper pair
  3 = kspace
run            2000000
PPPM initialization ...
  using 12-bit tables for long-range coulomb (../kspace.cpp:321)
  G vector (1/distance) = 0.241002
  grid = 60 36 45
  stencil order = 5
  estimated absolute RMS force accuracy = 0.000399067
  estimated relative force accuracy = 1.20178e-06
  using single precision FFTs
  3d grid and FFT values/proc = 27434 12960
Per MPI rank memory allocation (min/avg/max) = 33.68 | 33.73 | 33.77 Mbytes
---------------- Step        0 ----- CPU =      0.0000 (sec) ----------------
Time     =         0.0000 TotEng   =     77591.9472 KinEng   =     40242.6573 
PotEng   =     37349.2899 E_bond   =     14224.9537 E_angle  =     16731.8668 
E_dihed  =      9911.8880 E_impro  =        59.2706 E_vdwl   =    -16073.0673 
E_coul   =     53897.7043 E_long   =    -41403.3263 E_tail   =         0.0000 
Enthalpy =     78665.2072 Temp     =       299.6466 Press    =       155.8096 
Pxx      =       -49.9848 Pxy      =      -111.1160 Pxz      =        50.6587 
Pyy      =       155.5319 Pyz      =      -231.6494 Pzz      =       361.8818 
Volume   =    472318.3420 Lx       =       110.5715 Ly       =        55.2858 
Lz       =        77.2642 Density  =         0.9987 f_2      =         0.0000 
v_Jxtime =         0.0000 
---------------- Step    10000 ----- CPU =    155.5747 (sec) ----------------
Time     =     30000.0000 TotEng   =     77617.3172 KinEng   =     40323.1339 
PotEng   =     37294.1833 E_bond   =     14271.9527 E_angle  =     16804.6674 
E_dihed  =      9815.9080 E_impro  =        59.0275 E_vdwl   =    -16145.0941 
E_coul   =     53890.7177 E_long   =    -41402.9958 E_tail   =         0.0000 
Enthalpy =     77081.9640 Temp     =       300.2458 Press    =       -77.7194 
Pxx      =      -124.5089 Pxy      =       608.7654 Pxz      =      -357.2252 
Pyy      =       272.8755 Pyz      =      -247.4482 Pzz      =      -381.5249 
Volume   =    472318.3420 Lx       =       110.5715 Ly       =        55.2858 
Lz       =        77.2642 Density  =         0.9987 f_2      =        66.1230 
v_Jxtime =         0.0077 
---------------- Step    20000 ----- CPU =    310.8804 (sec) ----------------
Time     =     60000.0000 TotEng   =     77615.4716 KinEng   =     40437.3491 
PotEng   =     37178.1225 E_bond   =     14163.1438 E_angle  =     16519.8262 
E_dihed  =     10162.2394 E_impro  =        60.6020 E_vdwl   =    -16222.3487 
E_coul   =     53890.3007 E_long   =    -41395.6409 E_tail   =         0.0000 
Enthalpy =     75630.7654 Temp     =       301.0963 Press    =      -288.1280 
Pxx      =       -84.6717 Pxy      =       106.3371 Pxz      =       347.3498 
Pyy      =      -737.2258 Pyz      =      -200.6009 Pzz      =       -42.4866 
Volume   =    472318.3420 Lx       =       110.5715 Ly       =        55.2858 
Lz       =        77.2642 Density  =         0.9987 f_2      =       139.0318 
v_Jxtime =         0.0163 
---------------- Step    30000 ----- CPU =    466.1710 (sec) ----------------
Time     =     90000.0000 TotEng   =     77615.3871 KinEng   =     40392.4178 
PotEng   =     37222.9693 E_bond   =     14291.8331 E_angle  =     16551.4897 
E_dihed  =      9953.1093 E_impro  =        58.4282 E_vdwl   =    -16137.7003 
E_coul   =     53900.9441 E_long   =    -41395.1349 E_tail   =         0.0000 
Enthalpy =     76698.8296 Temp     =       300.7617 Press    =      -133.0605 
Pxx      =       126.7643 Pxy      =      -471.9288 Pxz      =        31.3487 
Pyy      =       -95.9721 Pyz      =        65.0377 Pzz      =      -429.9736 
Volume   =    472318.3420 Lx       =       110.5715 Ly       =        55.2858 
Lz       =        77.2642 Density  =         0.9987 f_2      =       224.1326 
v_Jxtime =         0.0262 
---------------- Step    40000 ----- CPU =    621.3008 (sec) ----------------
Time     =    120000.0000 TotEng   =     77616.3586 KinEng   =     40299.3541 
PotEng   =     37317.0045 E_bond   =     14174.3182 E_angle  =     16722.7932 
E_dihed  =      9939.1207 E_impro  =        58.0467 E_vdwl   =    -16076.2955 
E_coul   =     53894.1530 E_long   =    -41395.1319 E_tail   =         0.0000 
Enthalpy =     78899.0898 Temp     =       300.0688 Press    =       186.2194 
Pxx      =       251.7159 Pxy      =       443.3847 Pxz      =      -275.4275 
Pyy      =      -200.4841 Pyz      =        26.1320 Pzz      =       507.4265 
Volume   =    472318.3420 Lx       =       110.5715 Ly       =        55.2858 
Lz       =        77.2642 Density  =         0.9987 f_2      =       314.0069 
v_Jxtime =         0.0368 
---------------- Step    50000 ----- CPU =    776.7141 (sec) ----------------
Time     =    150000.0000 TotEng   =     77617.6177 KinEng   =     40294.9957 
PotEng   =     37322.6220 E_bond   =     14063.0123 E_angle  =     16787.3623 
E_dihed  =      9978.9391 E_impro  =        60.0063 E_vdwl   =    -16075.5893 
E_coul   =     53895.0042 E_long   =    -41386.1130 E_tail   =         0.0000 
Enthalpy =     79664.7889 Temp     =       300.0363 Press    =       297.1963 
Pxx      =       107.9920 Pxy      =      -225.9925 Pxz      =       -44.5222 
Pyy      =       -10.8859 Pyz      =      -134.4212 Pzz      =       794.4829 
Volume   =    472318.3420 Lx       =       110.5715 Ly       =        55.2858 
Lz       =        77.2642 Density  =         0.9987 f_2      =       374.7475 
v_Jxtime =         0.0439 
---------------- Step    60000 ----- CPU =    931.8990 (sec) ----------------
Time     =    180000.0000 TotEng   =     77617.4488 KinEng   =     40275.6057 
PotEng   =     37341.8430 E_bond   =     14173.1861 E_angle  =     16754.6003 
E_dihed  =      9960.9015 E_impro  =        57.6175 E_vdwl   =    -16098.8120 
E_coul   =     53890.1133 E_long   =    -41395.7637 E_tail   =         0.0000 
Enthalpy =     78114.7360 Temp     =       299.8919 Press    =        72.1933 
Pxx      =       164.4385 Pxy      =       475.2929 Pxz      =      -358.4425 
Pyy      =       131.7425 Pyz      =       113.9344 Pzz      =       -79.6012 
Volume   =    472318.3420 Lx       =       110.5715 Ly       =        55.2858 
Lz       =        77.2642 Density  =         0.9987 f_2      =       439.2930 
v_Jxtime =         0.0514 
---------------- Step    70000 ----- CPU =   1087.1876 (sec) ----------------
Time     =    210000.0000 TotEng   =     77616.8507 KinEng   =     40322.8795 
PotEng   =     37293.9712 E_bond   =     14136.2399 E_angle  =     16691.6850 
E_dihed  =      9962.6806 E_impro  =        59.6680 E_vdwl   =    -16083.4265 
E_coul   =     53928.9100 E_long   =    -41401.7858 E_tail   =         0.0000 
Enthalpy =     80921.6107 Temp     =       300.2439 Press    =       479.7657 
Pxx      =        36.2948 Pxy      =       344.3855 Pxz      =        57.3446 
Pyy      =       812.3942 Pyz      =       245.0599 Pzz      =       590.6082 
Volume   =    472318.3420 Lx       =       110.5715 Ly       =        55.2858 
Lz       =        77.2642 Density  =         0.9987 f_2      =       523.4738 
v_Jxtime =         0.0613 
---------------- Step    80000 ----- CPU =   1242.2402 (sec) ----------------
Time     =    240000.0000 TotEng   =     77616.9351 KinEng   =     40343.9729 
PotEng   =     37272.9622 E_bond   =     14056.2224 E_angle  =     16790.0102 
E_dihed  =      9976.4301 E_impro  =        59.9053 E_vdwl   =    -16107.5954 
E_coul   =     53896.2834 E_long   =    -41398.2938 E_tail   =         0.0000 
Enthalpy =     73544.9272 Temp     =       300.4010 Press    =      -591.1503 
Pxx      =      -568.6009 Pxy      =       -27.9994 Pxz      =      -281.9184 
Pyy      =      -677.3386 Pyz      =        92.1151 Pzz      =      -527.5114 
Volume   =    472318.3420 Lx       =       110.5715 Ly       =        55.2858 
Lz       =        77.2642 Density  =         0.9987 f_2      =       603.5729 
v_Jxtime =         0.0706 
---------------- Step    90000 ----- CPU =   1397.5016 (sec) ----------------
Time     =    270000.0000 TotEng   =     77615.2555 KinEng   =     40426.9841 
PotEng   =     37188.2714 E_bond   =     14070.6140 E_angle  =     16620.3070 
E_dihed  =      9928.6558 E_impro  =        59.0558 E_vdwl   =    -16028.5746 
E_coul   =     53941.8018 E_long   =    -41403.5884 E_tail   =         0.0000 
Enthalpy =     76869.1225 Temp     =       301.0191 Press    =      -108.3192 
Pxx      =       -81.7933 Pxy      =       -92.1366 Pxz      =      -583.8363 
Pyy      =      -136.3311 Pyz      =      -561.8174 Pzz      =      -106.8334 
Volume   =    472318.3420 Lx       =       110.5715 Ly       =        55.2858 
Lz       =        77.2642 Density  =         0.9987 f_2      =       659.7548 
v_Jxtime =         0.0772 
---------------- Step   100000 ----- CPU =   1552.7495 (sec) ----------------
Time     =    300000.0000 TotEng   =     77616.9832 KinEng   =     40303.0174 
PotEng   =     37313.9658 E_bond   =     14220.3623 E_angle  =     16587.4668 
E_dihed  =      9984.5393 E_impro  =        59.2877 E_vdwl   =    -16056.0617 
E_coul   =     53917.7998 E_long   =    -41399.4284 E_tail   =         0.0000 
Enthalpy =     74747.5555 Temp     =       300.0960 Press    =      -416.5667 
Pxx      =      -613.0374 Pxy      =        84.2754 Pxz      =      -115.0530 
Pyy      =      -676.2629 Pyz      =        13.1418 Pzz      =        39.6001 
Volume   =    472318.3420 Lx       =       110.5715 Ly       =        55.2858 
Lz       =        77.2642 Density  =         0.9987 f_2      =       732.0503 
v_Jxtime =         0.0857 
---------------- Step   110000 ----- CPU =   1707.9459 (sec) ----------------
Time     =    330000.0000 TotEng   =     77616.1322 KinEng   =     40393.0737 
PotEng   =     37223.0585 E_bond   =     14071.5219 E_angle  =     16704.0255 
E_dihed  =     10004.3716 E_impro  =        58.9710 E_vdwl   =    -16076.6791 
E_coul   =     53870.4701 E_long   =    -41409.6225 E_tail   =         0.0000 
Enthalpy =     78928.8208 Temp     =       300.7666 Press    =       190.5684 
Pxx      =       409.0211 Pxy      =       121.4944 Pxz      =      -243.7271 
Pyy      =       198.9821 Pyz      =      -216.6022 Pzz      =       -36.2979 
Volume   =    472318.3420 Lx       =       110.5715 Ly       =        55.2858 
Lz       =        77.2642 Density  =         0.9987 f_2      =       809.0303 
v_Jxtime =         0.0947 
---------------- Step   120000 ----- CPU =   1863.1974 (sec) ----------------
Time     =    360000.0000 TotEng   =     77616.6073 KinEng   =     40318.8035 
PotEng   =     37297.8038 E_bond   =     14160.8692 E_angle  =     16707.6933 
E_dihed  =      9940.2275 E_impro  =        58.7097 E_vdwl   =    -16067.5985 
E_coul   =     53895.8714 E_long   =    -41397.9689 E_tail   =         0.0000 
Enthalpy =     75847.9929 Temp     =       300.2136 Press    =      -256.7571 
Pxx      =      -647.8997 Pxy      =        55.1335 Pxz      =      -174.8975 
Pyy      =      -368.2198 Pyz      =      -218.9096 Pzz      =       245.8482 
Volume   =    472318.3420 Lx       =       110.5715 Ly       =        55.2858 
Lz       =        77.2642 Density  =         0.9987 f_2      =       873.1397 
v_Jxtime =         0.1022 
---------------- Step   130000 ----- CPU =   2018.5242 (sec) ----------------
Time     =    390000.0000 TotEng   =     77618.6246 KinEng   =     40052.7325 
PotEng   =     37565.8921 E_bond   =     14177.5482 E_angle  =     16882.2168 
E_dihed  =      9957.0492 E_impro  =        58.6637 E_vdwl   =    -16035.0704 
E_coul   =     53920.9425 E_long   =    -41395.4578 E_tail   =         0.0000 
Enthalpy =     81363.9888 Temp     =       298.2324 Press    =       543.7301 
Pxx      =      1025.3100 Pxy      =      -260.4857 Pxz      =      -149.4464 
Pyy      =       201.5992 Pyz      =        56.0612 Pzz      =       404.2811 
Volume   =    472318.3420 Lx       =       110.5715 Ly       =        55.2858 
Lz       =        77.2642 Density  =         0.9987 f_2      =       959.4497 
v_Jxtime =         0.1123 
---------------- Step   140000 ----- CPU =   2173.8632 (sec) ----------------
Time     =    420000.0000 TotEng   =     77618.2828 KinEng   =     40101.1382 
PotEng   =     37517.1446 E_bond   =     14298.3525 E_angle  =     16799.3303 
E_dihed  =     10020.1121 E_impro  =        60.2994 E_vdwl   =    -16150.5412 
E_coul   =     53889.8950 E_long   =    -41400.3035 E_tail   =         0.0000 
Enthalpy =     76726.7838 Temp     =       298.5928 Press    =      -129.4226 
Pxx      =       -70.5419 Pxy      =      -182.2654 Pxz      =       -12.0974 
Pyy      =       -79.5895 Pyz      =      -196.7146 Pzz      =      -238.1364 
Volume   =    472318.3420 Lx       =       110.5715 Ly       =        55.2858 
Lz       =        77.2642 Density  =         0.9987 f_2      =      1038.1787 
v_Jxtime =         0.1215 
---------------- Step   150000 ----- CPU =   2330.3586 (sec) ----------------
Time     =    450000.0000 TotEng   =     77617.4432 KinEng   =     40217.2593 
PotEng   =     37400.1839 E_bond   =     14240.1179 E_angle  =     16701.9264 
E_dihed  =      9887.0947 E_impro  =        58.3261 E_vdwl   =    -16028.3020 
E_coul   =     53934.8993 E_long   =    -41393.8787 E_tail   =         0.0000 
Enthalpy =     75131.6472 Temp     =       299.4575 Press    =      -360.8733 
Pxx      =      -534.7379 Pxy      =      -166.6977 Pxz      =       260.1634 
Pyy      =      -411.9655 Pyz      =       -50.8065 Pzz      =      -135.9165 
Volume   =    472318.3420 Lx       =       110.5715 Ly       =        55.2858 
Lz       =        77.2642 Density  =         0.9987 f_2      =      1102.4469 
v_Jxtime =         0.1290 
---------------- Step   160000 ----- CPU =   2485.5040 (sec) ----------------
Time     =    480000.0000 TotEng   =     77618.4112 KinEng   =     40257.5175 
PotEng   =     37360.8937 E_bond   =     14426.0046 E_angle  =     16641.2225 
E_dihed  =      9871.6064 E_impro  =        59.0786 E_vdwl   =    -16095.5278 
E_coul   =     53866.9025 E_long   =    -41408.3932 E_tail   =         0.0000 
Enthalpy =     77206.0151 Temp     =       299.7572 Press    =       -59.8693 
Pxx      =        70.0061 Pxy      =       -55.3456 Pxz      =       207.8956 
Pyy      =      -180.3943 Pyz      =      -116.4545 Pzz      =       -69.2196 
Volume   =    472318.3420 Lx       =       110.5715 Ly       =        55.2858 
Lz       =        77.2642 Density  =         0.9987 f_2      =      1173.0190 
v_Jxtime =         0.1373 
---------------- Step   170000 ----- CPU =   2640.6528 (sec) ----------------
Time     =    510000.0000 TotEng   =     77618.4212 KinEng   =     40245.2899 
PotEng   =     37373.1314 E_bond   =     14222.9484 E_angle  =     16711.6016 
E_dihed  =     10035.1834 E_impro  =        59.2462 E_vdwl   =    -16153.6209 
E_coul   =     53899.3644 E_long   =    -41401.5918 E_tail   =         0.0000 
Enthalpy =     77198.7755 Temp     =       299.6662 Press    =       -60.9217 
Pxx      =        -3.5674 Pxy      =        29.5900 Pxz      =       -85.5168 
Pyy      =       692.6820 Pyz      =        95.6267 Pzz      =      -871.8797 
Volume   =    472318.3420 Lx       =       110.5715 Ly       =        55.2858 
Lz       =        77.2642 Density  =         0.9987 f_2      =      1260.3023 
v_Jxtime =         0.1475 
---------------- Step   180000 ----- CPU =   2795.7276 (sec) ----------------
Time     =    540000.0000 TotEng   =     77617.4296 KinEng   =     40351.4447 
PotEng   =     37265.9849 E_bond   =     14213.5980 E_angle  =     16841.5902 
E_dihed  =      9752.9327 E_impro  =        58.0847 E_vdwl   =    -16140.1724 
E_coul   =     53930.0294 E_long   =    -41390.0776 E_tail   =         0.0000 
Enthalpy =     76884.8178 Temp     =       300.4566 Press    =      -106.3563 
Pxx      =       561.3295 Pxy      =        -7.1650 Pxz      =       132.2175 
Pyy      =      -830.3218 Pyz      =      -291.5763 Pzz      =       -50.0766 
Volume   =    472318.3420 Lx       =       110.5715 Ly       =        55.2858 
Lz       =        77.2642 Density  =         0.9987 f_2      =      1339.8422 
v_Jxtime =         0.1568 
---------------- Step   190000 ----- CPU =   2951.3499 (sec) ----------------
Time     =    570000.0000 TotEng   =     77618.8496 KinEng   =     40250.6694 
PotEng   =     37368.1802 E_bond   =     14166.7669 E_angle  =     16747.5714 
E_dihed  =      9945.3505 E_impro  =        57.9410 E_vdwl   =    -16048.1013 
E_coul   =     53903.5071 E_long   =    -41404.8554 E_tail   =         0.0000 
Enthalpy =     81151.2553 Temp     =       299.7063 Press    =       512.8140 
Pxx      =       126.2768 Pxy      =       451.9020 Pxz      =       129.1872 
Pyy      =       693.3388 Pyz      =      -184.2907 Pzz      =       718.8264 
Volume   =    472318.3420 Lx       =       110.5715 Ly       =        55.2858 
Lz       =        77.2642 Density  =         0.9987 f_2      =      1403.2865 
v_Jxtime =         0.1643 
---------------- Step   200000 ----- CPU =   3106.4702 (sec) ----------------
Time     =    600000.0000 TotEng   =     77618.7125 KinEng   =     40239.4911 
PotEng   =     37379.2214 E_bond   =     14209.6200 E_angle  =     16696.7745 
E_dihed  =     10067.7111 E_impro  =        59.8668 E_vdwl   =    -16160.3921 
E_coul   =     53907.3189 E_long   =    -41401.6779 E_tail   =         0.0000 
Enthalpy =     77073.3855 Temp     =       299.6230 Press    =       -79.1674 
Pxx      =       -92.2118 Pxy      =        76.5146 Pxz      =       233.9973 
Pyy      =        80.7078 Pyz      =       -70.0359 Pzz      =      -225.9981 
Volume   =    472318.3420 Lx       =       110.5715 Ly       =        55.2858 
Lz       =        77.2642 Density  =         0.9987 f_2      =      1479.0215 
v_Jxtime =         0.1731 
---------------- Step   210000 ----- CPU =   3261.5299 (sec) ----------------
Time     =    630000.0000 TotEng   =     77617.8401 KinEng   =     40307.1106 
PotEng   =     37310.7295 E_bond   =     14216.9653 E_angle  =     16692.8099 
E_dihed  =      9952.4484 E_impro  =        58.2235 E_vdwl   =    -16107.4427 
E_coul   =     53902.7507 E_long   =    -41405.0257 E_tail   =         0.0000 
Enthalpy =     79693.9528 Temp     =       300.1265 Press    =       301.3979 
Pxx      =       615.4381 Pxy      =      -224.4297 Pxz      =       -97.3160 
Pyy      =       491.5851 Pyz      =       109.9914 Pzz      =      -202.8296 
Volume   =    472318.3420 Lx       =       110.5715 Ly       =        55.2858 
Lz       =        77.2642 Density  =         0.9987 f_2      =      1567.5274 
v_Jxtime =         0.1835 
---------------- Step   220000 ----- CPU =   3416.3813 (sec) ----------------
Time     =    660000.0000 TotEng   =     77615.4295 KinEng   =     40399.8986 
PotEng   =     37215.5309 E_bond   =     14210.2502 E_angle  =     16583.2747 
E_dihed  =     10084.5152 E_impro  =        59.1162 E_vdwl   =    -16229.3192 
E_coul   =     53910.5320 E_long   =    -41402.8381 E_tail   =         0.0000 
Enthalpy =     74571.4473 Temp     =       300.8174 Press    =      -441.9075 
Pxx      =      -807.1869 Pxy      =       -93.0742 Pxz      =      -160.2075 
Pyy      =      -210.5841 Pyz      =       -18.3425 Pzz      =      -307.9516 
Volume   =    472318.3420 Lx       =       110.5715 Ly       =        55.2858 
Lz       =        77.2642 Density  =         0.9987 f_2      =      1631.0071 
v_Jxtime =         0.1909 
---------------- Step   230000 ----- CPU =   3572.0007 (sec) ----------------
Time     =    690000.0000 TotEng   =     77616.7041 KinEng   =     40421.4632 
PotEng   =     37195.2409 E_bond   =     14080.4870 E_angle  =     16733.4786 
E_dihed  =      9915.3223 E_impro  =        58.2785 E_vdwl   =    -16116.9013 
E_coul   =     53920.7538 E_long   =    -41396.1780 E_tail   =         0.0000 
Enthalpy =     78831.2432 Temp     =       300.9780 Press    =       176.3197 
Pxx      =      -416.1219 Pxy      =      -182.8945 Pxz      =       -78.4851 
Pyy      =       590.2660 Pyz      =      -292.0706 Pzz      =       354.8150 
Volume   =    472318.3420 Lx       =       110.5715 Ly       =        55.2858 
Lz       =        77.2642 Density  =         0.9987 f_2      =      1688.5928 
v_Jxtime =         0.1977 
---------------- Step   240000 ----- CPU =   3726.9916 (sec) ----------------
Time     =    720000.0000 TotEng   =     77615.3095 KinEng   =     40502.9707 
PotEng   =     37112.3388 E_bond   =     14156.9617 E_angle  =     16599.3656 
E_dihed  =      9978.5592 E_impro  =        59.3305 E_vdwl   =    -16202.3370 
E_coul   =     53923.6988 E_long   =    -41403.2398 E_tail   =         0.0000 
Enthalpy =     73176.0281 Temp     =       301.5849 Press    =      -644.4689 
Pxx      =       106.9669 Pxy      =      -163.6124 Pxz      =      -580.3563 
Pyy      =      -895.9087 Pyz      =      -159.9189 Pzz      =     -1144.4650 
Volume   =    472318.3420 Lx       =       110.5715 Ly       =        55.2858 
Lz       =        77.2642 Density  =         0.9987 f_2      =      1763.6232 
v_Jxtime =         0.2064 
---------------- Step   250000 ----- CPU =   3881.9844 (sec) ----------------
Time     =    750000.0000 TotEng   =     77616.0519 KinEng   =     40313.2370 
PotEng   =     37302.8149 E_bond   =     14173.0122 E_angle  =     16692.6266 
E_dihed  =      9903.8517 E_impro  =        59.0658 E_vdwl   =    -16029.8223 
E_coul   =     53903.1940 E_long   =    -41399.1131 E_tail   =         0.0000 
Enthalpy =     79832.5506 Temp     =       300.1721 Press    =       321.7783 
Pxx      =        20.1054 Pxy      =      -351.8327 Pxz      =        69.6352 
Pyy      =       725.0430 Pyz      =      -466.3584 Pzz      =       220.1865 
Volume   =    472318.3420 Lx       =       110.5715 Ly       =        55.2858 
Lz       =        77.2642 Density  =         0.9987 f_2      =      1831.3437 
v_Jxtime =         0.2144 
---------------- Step   260000 ----- CPU =   4037.0641 (sec) ----------------
Time     =    780000.0000 TotEng   =     77619.4268 KinEng   =     40182.7700 
PotEng   =     37436.6568 E_bond   =     14247.1958 E_angle  =     16708.6596 
E_dihed  =     10111.7869 E_impro  =        59.7191 E_vdwl   =    -16187.2778 
E_coul   =     53893.2411 E_long   =    -41396.6679 E_tail   =         0.0000 
Enthalpy =     75070.5462 Temp     =       299.2007 Press    =      -370.0316 
Pxx      =      -415.1707 Pxy      =        81.4537 Pxz      =      -273.2880 
Pyy      =      -153.4707 Pyz      =       579.3737 Pzz      =      -541.4534 
Volume   =    472318.3420 Lx       =       110.5715 Ly       =        55.2858 
Lz       =        77.2642 Density  =         0.9987 f_2      =      1908.5266 
v_Jxtime =         0.2234 
---------------- Step   270000 ----- CPU =   4192.1343 (sec) ----------------
Time     =    810000.0000 TotEng   =     77618.8994 KinEng   =     40369.0966 
PotEng   =     37249.8028 E_bond   =     14295.0011 E_angle  =     16649.3630 
E_dihed  =      9853.4552 E_impro  =        59.1166 E_vdwl   =    -16089.6923 
E_coul   =     53882.7584 E_long   =    -41400.1992 E_tail   =         0.0000 
Enthalpy =     76695.2984 Temp     =       300.5881 Press    =      -134.0830 
Pxx      =        73.3977 Pxy      =       542.7655 Pxz      =      -255.8042 
Pyy      =      -208.0834 Pyz      =      -425.9170 Pzz      =      -267.5633 
Volume   =    472318.3420 Lx       =       110.5715 Ly       =        55.2858 
Lz       =        77.2642 Density  =         0.9987 f_2      =      1963.2603 
v_Jxtime =         0.2298 
---------------- Step   280000 ----- CPU =   4347.2347 (sec) ----------------
Time     =    840000.0000 TotEng   =     77615.5710 KinEng   =     40545.6642 
PotEng   =     37069.9068 E_bond   =     14115.4901 E_angle  =     16711.9953 
E_dihed  =      9914.0364 E_impro  =        59.5167 E_vdwl   =    -16204.7955 
E_coul   =     53875.6611 E_long   =    -41401.9972 E_tail   =         0.0000 
Enthalpy =     78141.9347 Temp     =       301.9028 Press    =        76.4144 
Pxx      =        11.7320 Pxy      =       110.4469 Pxz      =       427.3128 
Pyy      =       616.7316 Pyz      =      -424.9176 Pzz      =      -399.2204 
Volume   =    472318.3420 Lx       =       110.5715 Ly       =        55.2858 
Lz       =        77.2642 Density  =         0.9987 f_2      =      2041.3114 
v_Jxtime =         0.2389 
---------------- Step   290000 ----- CPU =   4502.3538 (sec) ----------------
Time     =    870000.0000 TotEng   =     77617.1856 KinEng   =     40557.3378 
PotEng   =     37059.8478 E_bond   =     14256.2656 E_angle  =     16618.7271 
E_dihed  =      9822.8818 E_impro  =        59.4218 E_vdwl   =    -16145.4987 
E_coul   =     53849.2573 E_long   =    -41401.2072 E_tail   =         0.0000 
Enthalpy =     75875.0314 Temp     =       301.9897 Press    =      -252.9158 
Pxx      =      -586.3931 Pxy      =       117.6319 Pxz      =      -206.0886 
Pyy      =       -35.6476 Pyz      =      -327.1693 Pzz      =      -136.7066 
Volume   =    472318.3420 Lx       =       110.5715 Ly       =        55.2858 
Lz       =        77.2642 Density  =         0.9987 f_2      =      2113.4725 
v_Jxtime =         0.2474 
---------------- Step   300000 ----- CPU =   4657.2867 (sec) ----------------
Time     =    900000.0000 TotEng   =     77617.1186 KinEng   =     40367.5421 
PotEng   =     37249.5765 E_bond   =     14138.5494 E_angle  =     16684.6608 
E_dihed  =      9932.5206 E_impro  =        58.2058 E_vdwl   =    -16046.9011 
E_coul   =     53881.5499 E_long   =    -41399.0089 E_tail   =         0.0000 
Enthalpy =     80442.5111 Temp     =       300.5765 Press    =       410.1740 
Pxx      =       270.3526 Pxy      =       606.2261 Pxz      =      -585.5607 
Pyy      =       873.5479 Pyz      =      -120.3988 Pzz      =        86.6215 
Volume   =    472318.3420 Lx       =       110.5715 Ly       =        55.2858 
Lz       =        77.2642 Density  =         0.9987 f_2      =      2181.9069 
v_Jxtime =         0.2554 
---------------- Step   310000 ----- CPU =   4812.1312 (sec) ----------------
Time     =    930000.0000 TotEng   =     77615.5049 KinEng   =     40520.2545 
PotEng   =     37095.2504 E_bond   =     14164.2952 E_angle  =     16748.4424 
E_dihed  =      9803.6656 E_impro  =        59.2025 E_vdwl   =    -16145.3396 
E_coul   =     53867.5397 E_long   =    -41402.5553 E_tail   =         0.0000 
Enthalpy =     77130.1583 Temp     =       301.7136 Press    =       -70.4598 
Pxx      =        90.6230 Pxy      =       105.5818 Pxz      =       253.4970 
Pyy      =      -165.8924 Pyz      =       116.3766 Pzz      =      -136.1099 
Volume   =    472318.3420 Lx       =       110.5715 Ly       =        55.2858 
Lz       =        77.2642 Density  =         0.9987 f_2      =      2248.0944 
v_Jxtime =         0.2631 
---------------- Step   320000 ----- CPU =   4966.9812 (sec) ----------------
Time     =    960000.0000 TotEng   =     77616.2972 KinEng   =     40307.7893 
PotEng   =     37308.5079 E_bond   =     14300.2407 E_angle  =     16606.1240 
E_dihed  =      9817.7909 E_impro  =        56.2242 E_vdwl   =    -15958.5487 
E_coul   =     53887.3160 E_long   =    -41400.6392 E_tail   =         0.0000 
Enthalpy =     79200.0567 Temp     =       300.1316 Press    =       229.9209 
Pxx      =       257.4012 Pxy      =      -158.6336 Pxz      =      -522.5235 
Pyy      =       378.9207 Pyz      =       315.3147 Pzz      =        53.4409 
Volume   =    472318.3420 Lx       =       110.5715 Ly       =        55.2858 
Lz       =        77.2642 Density  =         0.9987 f_2      =      2341.0514 
v_Jxtime =         0.2740 
---------------- Step   330000 ----- CPU =   5121.8718 (sec) ----------------
Time     =    990000.0000 TotEng   =     77617.9645 KinEng   =     40346.7710 
PotEng   =     37271.1936 E_bond   =     14248.4369 E_angle  =     16610.1855 
E_dihed  =      9943.4302 E_impro  =        58.9783 E_vdwl   =    -16057.5851 
E_coul   =     53874.3044 E_long   =    -41406.5566 E_tail   =         0.0000 
Enthalpy =     78791.7181 Temp     =       300.4218 Press    =       170.3987 
Pxx      =       520.7037 Pxy      =        78.6128 Pxz      =       172.1417 
Pyy      =      -315.0504 Pyz      =        46.7715 Pzz      =       305.5427 
Volume   =    472318.3420 Lx       =       110.5715 Ly       =        55.2858 
Lz       =        77.2642 Density  =         0.9987 f_2      =      2411.9771 
v_Jxtime =         0.2823 
---------------- Step   340000 ----- CPU =   5282.3938 (sec) ----------------
Time     =   1020000.0000 TotEng   =     77615.1322 KinEng   =     40401.7882 
PotEng   =     37213.3440 E_bond   =     14264.5137 E_angle  =     16618.1710 
E_dihed  =      9863.1571 E_impro  =        57.9827 E_vdwl   =    -16079.8351 
E_coul   =     53902.2589 E_long   =    -41412.9044 E_tail   =         0.0000 
Enthalpy =     80669.1525 Temp     =       300.8315 Press    =       443.3648 
Pxx      =       171.0811 Pxy      =       424.9666 Pxz      =      -289.2693 
Pyy      =       693.5053 Pyz      =      -212.7448 Pzz      =       465.5080 
Volume   =    472318.3420 Lx       =       110.5715 Ly       =        55.2858 
Lz       =        77.2642 Density  =         0.9987 f_2      =      2478.0956 
v_Jxtime =         0.2901 
---------------- Step   350000 ----- CPU =   5437.3680 (sec) ----------------
Time     =   1050000.0000 TotEng   =     77618.5516 KinEng   =     40268.9424 
PotEng   =     37349.6092 E_bond   =     14216.9302 E_angle  =     16837.6706 
E_dihed  =      9950.3363 E_impro  =        59.5392 E_vdwl   =    -16166.1337 
E_coul   =     53871.2717 E_long   =    -41420.0051 E_tail   =         0.0000 
Enthalpy =     72731.7632 Temp     =       299.8423 Press    =      -709.4354 
Pxx      =      -265.9262 Pxy      =       396.4308 Pxz      =       648.0360 
Pyy      =      -741.2991 Pyz      =       248.9963 Pzz      =     -1121.0807 
Volume   =    472318.3420 Lx       =       110.5715 Ly       =        55.2858 
Lz       =        77.2642 Density  =         0.9987 f_2      =      2551.8340 
v_Jxtime =         0.2987 
---------------- Step   360000 ----- CPU =   5592.2850 (sec) ----------------
Time     =   1080000.0000 TotEng   =     77615.9894 KinEng   =     40456.8006 
PotEng   =     37159.1888 E_bond   =     14012.2997 E_angle  =     16858.4081 
E_dihed  =      9921.1424 E_impro  =        59.1509 E_vdwl   =    -16171.0981 
E_coul   =     53889.2108 E_long   =    -41409.9249 E_tail   =         0.0000 
Enthalpy =     77196.6313 Temp     =       301.2411 Press    =       -60.8800 
Pxx      =       161.4140 Pxy      =        64.3417 Pxz      =      -503.8733 
Pyy      =        13.3171 Pyz      =      -317.0260 Pzz      =      -357.3710 
Volume   =    472318.3420 Lx       =       110.5715 Ly       =        55.2858 
Lz       =        77.2642 Density  =         0.9987 f_2      =      2625.0644 
v_Jxtime =         0.3073 
---------------- Step   370000 ----- CPU =   5747.3229 (sec) ----------------
Time     =   1110000.0000 TotEng   =     77616.0709 KinEng   =     40448.7867 
PotEng   =     37167.2843 E_bond   =     14166.0739 E_angle  =     16545.3829 
E_dihed  =     10037.9689 E_impro  =        59.8445 E_vdwl   =    -16082.1169 
E_coul   =     53856.1567 E_long   =    -41416.0258 E_tail   =         0.0000 
Enthalpy =     77938.0045 Temp     =       301.1814 Press    =        46.7364 
Pxx      =       412.0832 Pxy      =       -58.1675 Pxz      =      -700.6186 
Pyy      =      -256.8551 Pyz      =       -25.1170 Pzz      =       -15.0188 
Volume   =    472318.3420 Lx       =       110.5715 Ly       =        55.2858 
Lz       =        77.2642 Density  =         0.9987 f_2      =      2706.1502 
v_Jxtime =         0.3168 
---------------- Step   380000 ----- CPU =   5902.4413 (sec) ----------------
Time     =   1140000.0000 TotEng   =     77616.6462 KinEng   =     40335.0605 
PotEng   =     37281.5857 E_bond   =     14104.2069 E_angle  =     16801.9674 
E_dihed  =      9994.3158 E_impro  =        59.6740 E_vdwl   =    -16175.7341 
E_coul   =     53904.8731 E_long   =    -41407.7173 E_tail   =         0.0000 
Enthalpy =     79713.1258 Temp     =       300.3346 Press    =       304.3546 
Pxx      =       160.9829 Pxy      =      -311.4958 Pxz      =       -43.1879 
Pyy      =       597.8849 Pyz      =        69.8201 Pzz      =       154.1962 
Volume   =    472318.3420 Lx       =       110.5715 Ly       =        55.2858 
Lz       =        77.2642 Density  =         0.9987 f_2      =      2782.7066 
v_Jxtime =         0.3257 
---------------- Step   390000 ----- CPU =   6057.3957 (sec) ----------------
Time     =   1170000.0000 TotEng   =     77618.7394 KinEng   =     40311.3862 
PotEng   =     37307.3532 E_bond   =     14181.7357 E_angle  =     16691.2100 
E_dihed  =      9991.1986 E_impro  =        59.5721 E_vdwl   =    -16093.8118 
E_coul   =     53877.7697 E_long   =    -41400.3211 E_tail   =         0.0000 
Enthalpy =     79814.2974 Temp     =       300.1584 Press    =       318.7383 
Pxx      =       692.0692 Pxy      =       235.2603 Pxz      =       -12.4332 
Pyy      =       114.5017 Pyz      =        33.7482 Pzz      =       149.6439 
Volume   =    472318.3420 Lx       =       110.5715 Ly       =        55.2858 
Lz       =        77.2642 Density  =         0.9987 f_2      =      2856.0147 
v_Jxtime =         0.3343 
---------------- Step   400000 ----- CPU =   6212.4108 (sec) ----------------
Time     =   1200000.0000 TotEng   =     77617.4774 KinEng   =     40345.5839 
PotEng   =     37271.8935 E_bond   =     14163.7974 E_angle  =     16647.5019 
E_dihed  =      9980.3724 E_impro  =        59.0071 E_vdwl   =    -16099.5495 
E_coul   =     53909.8264 E_long   =    -41389.0622 E_tail   =         0.0000 
Enthalpy =     81204.5407 Temp     =       300.4130 Press    =       520.7489 
Pxx      =       291.3096 Pxy      =       387.4192 Pxz      =      -131.1391 
Pyy      =       584.8655 Pyz      =      -101.8562 Pzz      =       686.0715 
Volume   =    472318.3420 Lx       =       110.5715 Ly       =        55.2858 
Lz       =        77.2642 Density  =         0.9987 f_2      =      2937.2350 
v_Jxtime =         0.3438 
---------------- Step   410000 ----- CPU =   6367.4354 (sec) ----------------
Time     =   1230000.0000 TotEng   =     77616.5000 KinEng   =     40415.0030 
PotEng   =     37201.4970 E_bond   =     14104.6393 E_angle  =     16647.5752 
E_dihed  =      9971.9219 E_impro  =        60.3749 E_vdwl   =    -16099.2820 
E_coul   =     53911.2767 E_long   =    -41395.0088 E_tail   =         0.0000 
Enthalpy =     78455.4689 Temp     =       300.9299 Press    =       121.7966 
Pxx      =       125.6728 Pxy      =       402.6009 Pxz      =       677.5711 
Pyy      =       169.2728 Pyz      =       -44.7875 Pzz      =        70.4442 
Volume   =    472318.3420 Lx       =       110.5715 Ly       =        55.2858 
Lz       =        77.2642 Density  =         0.9987 f_2      =      3028.8826 
v_Jxtime =         0.3545 
---------------- Step   420000 ----- CPU =   6522.5807 (sec) ----------------
Time     =   1260000.0000 TotEng   =     77619.0382 KinEng   =     40196.4288 
PotEng   =     37422.6094 E_bond   =     14302.3506 E_angle  =     16652.9767 
E_dihed  =     10028.6473 E_impro  =        61.1943 E_vdwl   =    -16082.4139 
E_coul   =     53861.4982 E_long   =    -41401.6437 E_tail   =         0.0000 
Enthalpy =     78096.9819 Temp     =       299.3024 Press    =        69.3851 
Pxx      =      -264.5832 Pxy      =       154.6602 Pxz      =       -64.0501 
Pyy      =       161.6668 Pyz      =         4.3731 Pzz      =       311.0716 
Volume   =    472318.3420 Lx       =       110.5715 Ly       =        55.2858 
Lz       =        77.2642 Density  =         0.9987 f_2      =      3126.0217 
v_Jxtime =         0.3659 
---------------- Step   430000 ----- CPU =   6677.8145 (sec) ----------------
Time     =   1290000.0000 TotEng   =     77618.1428 KinEng   =     40449.7725 
PotEng   =     37168.3703 E_bond   =     14156.3447 E_angle  =     16740.4513 
E_dihed  =      9831.8720 E_impro  =        58.6463 E_vdwl   =    -16095.7340 
E_coul   =     53875.3450 E_long   =    -41398.5550 E_tail   =         0.0000 
Enthalpy =     77274.3508 Temp     =       301.1888 Press    =       -49.9097 
Pxx      =      -659.1744 Pxy      =      -543.2043 Pxz      =       405.2866 
Pyy      =       -50.1153 Pyz      =       -44.6538 Pzz      =       559.5605 
Volume   =    472318.3420 Lx       =       110.5715 Ly       =        55.2858 
Lz       =        77.2642 Density  =         0.9987 f_2      =      3190.5981 
v_Jxtime =         0.3735 
---------------- Step   440000 ----- CPU =   6833.3637 (sec) ----------------
Time     =   1320000.0000 TotEng   =     77618.2477 KinEng   =     40260.9493 
PotEng   =     37357.2984 E_bond   =     14192.6924 E_angle  =     16703.5082 
E_dihed  =      9949.7111 E_impro  =        59.9126 E_vdwl   =    -16061.1342 
E_coul   =     53909.6306 E_long   =    -41397.0223 E_tail   =         0.0000 
Enthalpy =     77818.2411 Temp     =       299.7828 Press    =        29.0339 
Pxx      =        -0.2156 Pxy      =      -459.6260 Pxz      =       333.0034 
Pyy      =       112.3872 Pyz      =        36.3977 Pzz      =       -25.0699 
Volume   =    472318.3420 Lx       =       110.5715 Ly       =        55.2858 
Lz       =        77.2642 Density  =         0.9987 f_2      =      3255.2812 
v_Jxtime =         0.3810 
---------------- Step   450000 ----- CPU =   6988.8647 (sec) ----------------
Time     =   1350000.0000 TotEng   =     77615.5830 KinEng   =     40457.7330 
PotEng   =     37157.8500 E_bond   =     14235.6716 E_angle  =     16583.1691 
E_dihed  =     10024.9736 E_impro  =        59.5369 E_vdwl   =    -16235.9454 
E_coul   =     53901.5777 E_long   =    -41411.1334 E_tail   =         0.0000 
Enthalpy =     76342.1266 Temp     =       301.2481 Press    =      -184.8730 
Pxx      =      -353.3283 Pxy      =      -226.2309 Pxz      =       396.7589 
Pyy      =      -280.7661 Pyz      =      -211.2481 Pzz      =        79.4755 
Volume   =    472318.3420 Lx       =       110.5715 Ly       =        55.2858 
Lz       =        77.2642 Density  =         0.9987 f_2      =      3326.6584 
v_Jxtime =         0.3894 
---------------- Step   460000 ----- CPU =   7144.1412 (sec) ----------------
Time     =   1380000.0000 TotEng   =     77619.4315 KinEng   =     40258.9243 
PotEng   =     37360.5072 E_bond   =     14058.4806 E_angle  =     16763.4337 
E_dihed  =     10064.3992 E_impro  =        60.5544 E_vdwl   =    -16117.6579 
E_coul   =     53930.4557 E_long   =    -41399.1586 E_tail   =         0.0000 
Enthalpy =     78564.4038 Temp     =       299.7677 Press    =       137.1856 
Pxx      =      -236.2832 Pxy      =      -319.5539 Pxz      =       253.1030 
Pyy      =       -36.1706 Pyz      =       313.5566 Pzz      =       684.0105 
Volume   =    472318.3420 Lx       =       110.5715 Ly       =        55.2858 
Lz       =        77.2642 Density  =         0.9987 f_2      =      3383.2716 
v_Jxtime =         0.3960 
---------------- Step   470000 ----- CPU =   7299.2332 (sec) ----------------
Time     =   1410000.0000 TotEng   =     77617.7481 KinEng   =     40247.6428 
PotEng   =     37370.1053 E_bond   =     14253.6386 E_angle  =     16673.4310 
E_dihed  =      9942.2236 E_impro  =        59.5802 E_vdwl   =    -16053.4580 
E_coul   =     53893.5648 E_long   =    -41398.8750 E_tail   =         0.0000 
Enthalpy =     76340.1823 Temp     =       299.6837 Press    =      -185.4695 
Pxx      =        27.4619 Pxy      =       123.3258 Pxz      =       143.3481 
Pyy      =      -121.9093 Pyz      =       478.1702 Pzz      =      -461.9612 
Volume   =    472318.3420 Lx       =       110.5715 Ly       =        55.2858 
Lz       =        77.2642 Density  =         0.9987 f_2      =      3462.8160 
v_Jxtime =         0.4053 
---------------- Step   480000 ----- CPU =   7454.8910 (sec) ----------------
Time     =   1440000.0000 TotEng   =     77620.1181 KinEng   =     40275.0307 
PotEng   =     37345.0874 E_bond   =     14366.3265 E_angle  =     16833.3068 
E_dihed  =      9857.1510 E_impro  =        58.0273 E_vdwl   =    -16254.5915 
E_coul   =     53886.0051 E_long   =    -41401.1379 E_tail   =         0.0000 
Enthalpy =     71815.5538 Temp     =       299.8877 Press    =      -842.6727 
Pxx      =      -681.1469 Pxy      =      -151.6533 Pxz      =      -276.8007 
Pyy      =      -431.1112 Pyz      =       177.6801 Pzz      =     -1415.7599 
Volume   =    472318.3420 Lx       =       110.5715 Ly       =        55.2858 
Lz       =        77.2642 Density  =         0.9987 f_2      =      3533.8910 
v_Jxtime =         0.4136 
---------------- Step   490000 ----- CPU =   7610.5298 (sec) ----------------
Time     =   1470000.0000 TotEng   =     77619.2607 KinEng   =     40335.8139 
PotEng   =     37283.4468 E_bond   =     14282.2897 E_angle  =     16607.1925 
E_dihed  =      9855.4360 E_impro  =        58.0643 E_vdwl   =    -16023.5755 
E_coul   =     53907.5571 E_long   =    -41403.5173 E_tail   =         0.0000 
Enthalpy =     76464.8282 Temp     =       300.3402 Press    =      -167.5938 
Pxx      =       -49.6433 Pxy      =      -201.6876 Pxz      =         1.1370 
Pyy      =      -171.6834 Pyz      =       537.6187 Pzz      =      -281.4545 
Volume   =    472318.3420 Lx       =       110.5715 Ly       =        55.2858 
Lz       =        77.2642 Density  =         0.9987 f_2      =      3603.6305 
v_Jxtime =         0.4218 
---------------- Step   500000 ----- CPU =   7766.4440 (sec) ----------------
Time     =   1500000.0000 TotEng   =     77618.3600 KinEng   =     40317.2823 
PotEng   =     37301.0777 E_bond   =     14259.5660 E_angle  =     16642.1525 
E_dihed  =     10007.7475 E_impro  =        60.4461 E_vdwl   =    -16204.7069 
E_coul   =     53929.7461 E_long   =    -41393.8736 E_tail   =         0.0000 
Enthalpy =     76850.6287 Temp     =       300.2023 Press    =      -111.4547 
Pxx      =       -52.7372 Pxy      =        36.1713 Pxz      =       180.3938 
Pyy      =      -502.9190 Pyz      =        76.0230 Pzz      =       221.2920 
Volume   =    472318.3420 Lx       =       110.5715 Ly       =        55.2858 
Lz       =        77.2642 Density  =         0.9987 f_2      =      3674.1645 
v_Jxtime =         0.4301 
---------------- Step   510000 ----- CPU =   7921.5748 (sec) ----------------
Time     =   1530000.0000 TotEng   =     77619.3729 KinEng   =     40247.6983 
PotEng   =     37371.6746 E_bond   =     14272.8733 E_angle  =     16809.5180 
E_dihed  =      9861.7789 E_impro  =        59.1108 E_vdwl   =    -16143.0755 
E_coul   =     53913.9170 E_long   =    -41402.4480 E_tail   =         0.0000 
Enthalpy =     74082.4272 Temp     =       299.6841 Press    =      -513.4731 
Pxx      =      -570.2425 Pxy      =        98.0955 Pxz      =      -480.7569 
Pyy      =        52.1441 Pyz      =       559.9930 Pzz      =     -1022.3209 
Volume   =    472318.3420 Lx       =       110.5715 Ly       =        55.2858 
Lz       =        77.2642 Density  =         0.9987 f_2      =      3749.2661 
v_Jxtime =         0.4389 
---------------- Step   520000 ----- CPU =   8076.7222 (sec) ----------------
Time     =   1560000.0000 TotEng   =     77618.3216 KinEng   =     40134.0180 
PotEng   =     37484.3036 E_bond   =     14173.5617 E_angle  =     16909.1316 
E_dihed  =      9898.2565 E_impro  =        59.4654 E_vdwl   =    -16044.4956 
E_coul   =     53897.5890 E_long   =    -41409.2050 E_tail   =         0.0000 
Enthalpy =     75560.1780 Temp     =       298.8377 Press    =      -298.7893 
Pxx      =      -310.1651 Pxy      =       -34.9070 Pxz      =      -193.3594 
Pyy      =      -197.9526 Pyz      =       -39.8612 Pzz      =      -388.2500 
Volume   =    472318.3420 Lx       =       110.5715 Ly       =        55.2858 
Lz       =        77.2642 Density  =         0.9987 f_2      =      3821.2289 
v_Jxtime =         0.4473 
---------------- Step   530000 ----- CPU =   8232.5496 (sec) ----------------
Time     =   1590000.0000 TotEng   =     77617.7473 KinEng   =     40361.9176 
PotEng   =     37255.8297 E_bond   =     14291.6922 E_angle  =     16639.0554 
E_dihed  =      9886.9481 E_impro  =        59.4529 E_vdwl   =    -16136.0455 
E_coul   =     53915.4508 E_long   =    -41400.7243 E_tail   =         0.0000 
Enthalpy =     76336.2778 Temp     =       300.5346 Press    =      -186.0362 
Pxx      =         1.8428 Pxy      =       242.2064 Pxz      =      -615.5052 
Pyy      =      -300.0833 Pyz      =      -104.5167 Pzz      =      -259.8682 
Volume   =    472318.3420 Lx       =       110.5715 Ly       =        55.2858 
Lz       =        77.2642 Density  =         0.9987 f_2      =      3899.4204 
v_Jxtime =         0.4564 
---------------- Step   540000 ----- CPU =   8387.6823 (sec) ----------------
Time     =   1620000.0000 TotEng   =     77618.0247 KinEng   =     40155.3393 
PotEng   =     37462.6854 E_bond   =     14276.1246 E_angle  =     16809.4438 
E_dihed  =      9937.9102 E_impro  =        57.8499 E_vdwl   =    -16136.0784 
E_coul   =     53915.4989 E_long   =    -41398.0635 E_tail   =         0.0000 
Enthalpy =     76162.5136 Temp     =       298.9964 Press    =      -211.3026 
Pxx      =       103.0015 Pxy      =       302.4975 Pxz      =       169.5981 
Pyy      =      -677.9737 Pyz      =      -107.9309 Pzz      =       -58.9355 
Volume   =    472318.3420 Lx       =       110.5715 Ly       =        55.2858 
Lz       =        77.2642 Density  =         0.9987 f_2      =      3981.4931 
v_Jxtime =         0.4660 
---------------- Step   550000 ----- CPU =   8542.7810 (sec) ----------------
Time     =   1650000.0000 TotEng   =     77618.6282 KinEng   =     40273.2860 
PotEng   =     37345.3421 E_bond   =     14145.6906 E_angle  =     16704.9731 
E_dihed  =      9982.4403 E_impro  =        59.8468 E_vdwl   =    -16062.3279 
E_coul   =     53906.7541 E_long   =    -41392.0350 E_tail   =         0.0000 
Enthalpy =     78428.3126 Temp     =       299.8747 Press    =       117.5453 
Pxx      =        68.6663 Pxy      =        22.0030 Pxz      =      -188.3564 
Pyy      =      -142.0499 Pyz      =      -155.5507 Pzz      =       426.0194 
Volume   =    472318.3420 Lx       =       110.5715 Ly       =        55.2858 
Lz       =        77.2642 Density  =         0.9987 f_2      =      4058.6675 
v_Jxtime =         0.4751 
---------------- Step   560000 ----- CPU =   8697.6242 (sec) ----------------
Time     =   1680000.0000 TotEng   =     77617.7145 KinEng   =     40214.8729 
PotEng   =     37402.8416 E_bond   =     14248.1881 E_angle  =     16610.9981 
E_dihed  =      9960.3102 E_impro  =        59.1505 E_vdwl   =    -15976.9317 
E_coul   =     53897.9511 E_long   =    -41396.8247 E_tail   =         0.0000 
Enthalpy =     80484.9706 Temp     =       299.4397 Press    =       416.2515 
Pxx      =       789.6459 Pxy      =       307.3926 Pxz      =        57.6181 
Pyy      =       280.1646 Pyz      =      -228.9933 Pzz      =       178.9439 
Volume   =    472318.3420 Lx       =       110.5715 Ly       =        55.2858 
Lz       =        77.2642 Density  =         0.9987 f_2      =      4143.5890 
v_Jxtime =         0.4850 
---------------- Step   570000 ----- CPU =   8852.6327 (sec) ----------------
Time     =   1710000.0000 TotEng   =     77618.0151 KinEng   =     40411.8994 
PotEng   =     37206.1157 E_bond   =     14197.1895 E_angle  =     16639.6319 
E_dihed  =      9921.1947 E_impro  =        59.1472 E_vdwl   =    -16114.6160 
E_coul   =     53910.3524 E_long   =    -41406.7840 E_tail   =         0.0000 
Enthalpy =     78161.6905 Temp     =       300.9068 Press    =        78.9276 
Pxx      =       438.7514 Pxy      =       -58.4271 Pxz      =      -190.2934 
Pyy      =      -175.8727 Pyz      =       130.0216 Pzz      =       -26.0958 
Volume   =    472318.3420 Lx       =       110.5715 Ly       =        55.2858 
Lz       =        77.2642 Density  =         0.9987 f_2      =      4231.7589 
v_Jxtime =         0.4953 
---------------- Step   580000 ----- CPU =   9007.7620 (sec) ----------------
Time     =   1740000.0000 TotEng   =     77616.2750 KinEng   =     40444.0521 
PotEng   =     37172.2230 E_bond   =     14151.8324 E_angle  =     16477.2229 
E_dihed  =     10082.4027 E_impro  =        60.1833 E_vdwl   =    -16111.7570 
E_coul   =     53920.0595 E_long   =    -41407.7209 E_tail   =         0.0000 
Enthalpy =     78263.0151 Temp     =       301.1462 Press    =        93.8899 
Pxx      =      -457.3460 Pxy      =       -48.7139 Pxz      =        17.9034 
Pyy      =       362.6224 Pyz      =         6.2713 Pzz      =       376.3934 
Volume   =    472318.3420 Lx       =       110.5715 Ly       =        55.2858 
Lz       =        77.2642 Density  =         0.9987 f_2      =      4289.1512 
v_Jxtime =         0.5021 
---------------- Step   590000 ----- CPU =   9162.8240 (sec) ----------------
Time     =   1770000.0000 TotEng   =     77614.5989 KinEng   =     40465.1319 
PotEng   =     37149.4670 E_bond   =     14215.0678 E_angle  =     16574.8273 
E_dihed  =      9962.5359 E_impro  =        59.9814 E_vdwl   =    -16162.8745 
E_coul   =     53896.3754 E_long   =    -41396.4464 E_tail   =         0.0000 
Enthalpy =     77049.9579 Temp     =       301.3031 Press    =       -81.9713 
Pxx      =      -539.5533 Pxy      =       184.7310 Pxz      =       -52.3771 
Pyy      =       -26.6494 Pyz      =       180.9247 Pzz      =       320.2889 
Volume   =    472318.3420 Lx       =       110.5715 Ly       =        55.2858 
Lz       =        77.2642 Density  =         0.9987 f_2      =      4369.6838 
v_Jxtime =         0.5115 
---------------- Step   600000 ----- CPU =   9318.5564 (sec) ----------------
Time     =   1800000.0000 TotEng   =     77616.6731 KinEng   =     40426.0081 
PotEng   =     37190.6650 E_bond   =     14069.1080 E_angle  =     16601.6220 
E_dihed  =     10006.6164 E_impro  =        60.3159 E_vdwl   =    -16064.4337 
E_coul   =     53920.2838 E_long   =    -41402.8475 E_tail   =         0.0000 
Enthalpy =     80053.5451 Temp     =       301.0118 Press    =       353.7708 
Pxx      =       523.7547 Pxy      =         3.2687 Pxz      =      -170.2295 
Pyy      =       250.5254 Pyz      =      -164.5117 Pzz      =       287.0324 
Volume   =    472318.3420 Lx       =       110.5715 Ly       =        55.2858 
Lz       =        77.2642 Density  =         0.9987 f_2      =      4425.0660 
v_Jxtime =         0.5180 
---------------- Step   610000 ----- CPU =   9473.7964 (sec) ----------------
Time     =   1830000.0000 TotEng   =     77618.3269 KinEng   =     40249.8303 
PotEng   =     37368.4966 E_bond   =     14188.1229 E_angle  =     16665.6792 
E_dihed  =     10012.9990 E_impro  =        59.7401 E_vdwl   =    -16078.6490 
E_coul   =     53912.6252 E_long   =    -41392.0207 E_tail   =         0.0000 
Enthalpy =     78842.8680 Temp     =       299.7000 Press    =       177.7717 
Pxx      =       285.8589 Pxy      =       255.8451 Pxz      =       180.2716 
Pyy      =       128.5685 Pyz      =       -68.8889 Pzz      =       118.8877 
Volume   =    472318.3420 Lx       =       110.5715 Ly       =        55.2858 
Lz       =        77.2642 Density  =         0.9987 f_2      =      4493.1100 
v_Jxtime =         0.5259 
---------------- Step   620000 ----- CPU =   9628.7842 (sec) ----------------
Time     =   1860000.0000 TotEng   =     77617.9649 KinEng   =     40418.4111 
PotEng   =     37199.5538 E_bond   =     14237.3761 E_angle  =     16646.3000 
E_dihed  =      9928.5434 E_impro  =        59.1126 E_vdwl   =    -16171.2427 
E_coul   =     53896.7260 E_long   =    -41397.2615 E_tail   =         0.0000 
Enthalpy =     77153.7650 Temp     =       300.9553 Press    =       -67.3898 
Pxx      =       364.4769 Pxy      =      -202.7239 Pxz      =      -468.4561 
Pyy      =      -372.1707 Pyz      =       -54.2338 Pzz      =      -194.4757 
Volume   =    472318.3420 Lx       =       110.5715 Ly       =        55.2858 
Lz       =        77.2642 Density  =         0.9987 f_2      =      4560.6917 
v_Jxtime =         0.5338 
---------------- Step   630000 ----- CPU =   9784.2475 (sec) ----------------
Time     =   1890000.0000 TotEng   =     77617.9565 KinEng   =     40286.4752 
PotEng   =     37331.4813 E_bond   =     14212.2258 E_angle  =     16792.5417 
E_dihed  =      9955.8294 E_impro  =        60.2778 E_vdwl   =    -16175.0924 
E_coul   =     53882.1984 E_long   =    -41396.4993 E_tail   =         0.0000 
Enthalpy =     75132.9894 Temp     =       299.9729 Press    =      -360.7530 
Pxx      =        80.8967 Pxy      =      -155.1043 Pxz      =      -324.5269 
Pyy      =      -407.4385 Pyz      =      -133.1573 Pzz      =      -755.7172 
Volume   =    472318.3420 Lx       =       110.5715 Ly       =        55.2858 
Lz       =        77.2642 Density  =         0.9987 f_2      =      4649.8563 
v_Jxtime =         0.5443 
---------------- Step   640000 ----- CPU =   9939.4499 (sec) ----------------
Time     =   1920000.0000 TotEng   =     77619.4945 KinEng   =     40242.2339 
PotEng   =     37377.2606 E_bond   =     14251.2512 E_angle  =     16802.4593 
E_dihed  =      9903.5659 E_impro  =        57.7782 E_vdwl   =    -16127.0448 
E_coul   =     53883.7172 E_long   =    -41394.4663 E_tail   =         0.0000 
Enthalpy =     72695.8361 Temp     =       299.6434 Press    =      -714.7879 
Pxx      =     -1382.6953 Pxy      =       224.0450 Pxz      =       247.3891 
Pyy      =      -737.6146 Pyz      =        -0.1886 Pzz      =       -24.0540 
Volume   =    472318.3420 Lx       =       110.5715 Ly       =        55.2858 
Lz       =        77.2642 Density  =         0.9987 f_2      =      4714.3784 
v_Jxtime =         0.5518 
---------------- Step   650000 ----- CPU =  10094.3443 (sec) ----------------
Time     =   1950000.0000 TotEng   =     77617.9862 KinEng   =     40525.1618 
PotEng   =     37092.8244 E_bond   =     14176.3237 E_angle  =     16718.4964 
E_dihed  =      9885.1320 E_impro  =        59.3116 E_vdwl   =    -16194.8894 
E_coul   =     53844.9457 E_long   =    -41396.4957 E_tail   =         0.0000 
Enthalpy =     76348.9464 Temp     =       301.7501 Press    =      -184.2318 
Pxx      =       321.1083 Pxy      =       -49.6808 Pxz      =       192.9563 
Pyy      =      -508.6148 Pyz      =        53.5398 Pzz      =      -365.1888 
Volume   =    472318.3420 Lx       =       110.5715 Ly       =        55.2858 
Lz       =        77.2642 Density  =         0.9987 f_2      =      4800.7614 
v_Jxtime =         0.5619 
---------------- Step   660000 ----- CPU =  10249.5476 (sec) ----------------
Time     =   1980000.0000 TotEng   =     77617.6268 KinEng   =     40554.6741 
PotEng   =     37062.9527 E_bond   =     14090.6263 E_angle  =     16700.8828 
E_dihed  =      9979.0095 E_impro  =        59.5560 E_vdwl   =    -16243.3161 
E_coul   =     53870.2484 E_long   =    -41394.0542 E_tail   =         0.0000 
Enthalpy =     77887.7252 Temp     =       301.9699 Press    =        39.2113 
Pxx      =       249.9106 Pxy      =       187.8649 Pxz      =      -297.8244 
Pyy      =       502.4267 Pyz      =       -76.2218 Pzz      =      -634.7034 
Volume   =    472318.3420 Lx       =       110.5715 Ly       =        55.2858 
Lz       =        77.2642 Density  =         0.9987 f_2      =      4875.7437 
v_Jxtime =         0.5707 
---------------- Step   670000 ----- CPU =  10404.5289 (sec) ----------------
Time     =   2010000.0000 TotEng   =     77618.6677 KinEng   =     40417.4833 
PotEng   =     37201.1843 E_bond   =     14380.9955 E_angle  =     16629.3823 
E_dihed  =      9869.8614 E_impro  =        59.0199 E_vdwl   =    -16238.0014 
E_coul   =     53895.1823 E_long   =    -41395.2557 E_tail   =         0.0000 
Enthalpy =     74734.2479 Temp     =       300.9484 Press    =      -418.7432 
Pxx      =      -473.0787 Pxy      =       206.1440 Pxz      =      -434.8846 
Pyy      =       186.4832 Pyz      =        66.5414 Pzz      =      -969.6341 
Volume   =    472318.3420 Lx       =       110.5715 Ly       =        55.2858 
Lz       =        77.2642 Density  =         0.9987 f_2      =      4939.9905 
v_Jxtime =         0.5782 
---------------- Step   680000 ----- CPU =  10559.3497 (sec) ----------------
Time     =   2040000.0000 TotEng   =     77618.3849 KinEng   =     40459.3013 
PotEng   =     37159.0837 E_bond   =     14255.0780 E_angle  =     16726.9154 
E_dihed  =      9761.9915 E_impro  =        58.3792 E_vdwl   =    -16132.1136 
E_coul   =     53892.8076 E_long   =    -41403.9744 E_tail   =         0.0000 
Enthalpy =     77166.1453 Temp     =       301.2597 Press    =       -65.6535 
Pxx      =      -246.7142 Pxy      =       156.8523 Pxz      =       321.0269 
Pyy      =        26.2133 Pyz      =       318.2879 Pzz      =        23.5403 
Volume   =    472318.3420 Lx       =       110.5715 Ly       =        55.2858 
Lz       =        77.2642 Density  =         0.9987 f_2      =      5017.9639 
v_Jxtime =         0.5874 
---------------- Step   690000 ----- CPU =  10714.1420 (sec) ----------------
Time     =   2070000.0000 TotEng   =     77617.2031 KinEng   =     40306.4723 
PotEng   =     37310.7307 E_bond   =     14232.6445 E_angle  =     16686.3919 
E_dihed  =      9910.6162 E_impro  =        58.3493 E_vdwl   =    -16074.1390 
E_coul   =     53898.7230 E_long   =    -41401.8551 E_tail   =         0.0000 
Enthalpy =     79367.8039 Temp     =       300.1218 Press    =       254.1420 
Pxx      =      -107.4924 Pxy      =        56.5660 Pxz      =       308.4305 
Pyy      =       -69.9968 Pyz      =      -259.4699 Pzz      =       939.9152 
Volume   =    472318.3420 Lx       =       110.5715 Ly       =        55.2858 
Lz       =        77.2642 Density  =         0.9987 f_2      =      5078.2997 
v_Jxtime =         0.5944 
---------------- Step   700000 ----- CPU =  10869.1666 (sec) ----------------
Time     =   2100000.0000 TotEng   =     77619.0136 KinEng   =     40273.9769 
PotEng   =     37345.0367 E_bond   =     14204.1769 E_angle  =     16725.2090 
E_dihed  =      9983.6254 E_impro  =        60.4639 E_vdwl   =    -16114.0426 
E_coul   =     53887.4892 E_long   =    -41401.8852 E_tail   =         0.0000 
Enthalpy =     77812.5540 Temp     =       299.8798 Press    =        28.0971 
Pxx      =       339.4386 Pxy      =       361.1343 Pxz      =        96.2118 
Pyy      =      -155.9879 Pyz      =        24.9771 Pzz      =       -99.1595 
Volume   =    472318.3420 Lx       =       110.5715 Ly       =        55.2858 
Lz       =        77.2642 Density  =         0.9987 f_2      =      5140.5660 
v_Jxtime =         0.6017 
---------------- Step   710000 ----- CPU =  11024.1984 (sec) ----------------
Time     =   2130000.0000 TotEng   =     77616.8071 KinEng   =     40432.8175 
PotEng   =     37183.9896 E_bond   =     14104.5765 E_angle  =     16634.8681 
E_dihed  =     10016.1624 E_impro  =        60.5585 E_vdwl   =    -16145.9034 
E_coul   =     53919.3095 E_long   =    -41405.5820 E_tail   =         0.0000 
Enthalpy =     78436.9600 Temp     =       301.0625 Press    =       119.0650 
Pxx      =      -362.8206 Pxy      =        66.8223 Pxz      =      -589.0791 
Pyy      =       363.5169 Pyz      =       101.7844 Pzz      =       356.4987 
Volume   =    472318.3420 Lx       =       110.5715 Ly       =        55.2858 
Lz       =        77.2642 Density  =         0.9987 f_2      =      5215.9371 
v_Jxtime =         0.6105 
---------------- Step   720000 ----- CPU =  11179.1410 (sec) ----------------
Time     =   2160000.0000 TotEng   =     77617.4781 KinEng   =     40509.1999 
PotEng   =     37108.2782 E_bond   =     14193.4880 E_angle  =     16615.0271 
E_dihed  =      9931.1728 E_impro  =        59.1240 E_vdwl   =    -16178.4716 
E_coul   =     53888.0326 E_long   =    -41400.0947 E_tail   =         0.0000 
Enthalpy =     78937.2817 Temp     =       301.6313 Press    =       191.6014 
Pxx      =       212.7488 Pxy      =       294.4805 Pxz      =         4.9142 
Pyy      =      1114.3763 Pyz      =        90.3983 Pzz      =      -752.3210 
Volume   =    472318.3420 Lx       =       110.5715 Ly       =        55.2858 
Lz       =        77.2642 Density  =         0.9987 f_2      =      5287.3235 
v_Jxtime =         0.6189 
---------------- Step   730000 ----- CPU =  11334.0568 (sec) ----------------
Time     =   2190000.0000 TotEng   =     77617.6547 KinEng   =     40359.3988 
PotEng   =     37258.2559 E_bond   =     14233.7084 E_angle  =     16747.1482 
E_dihed  =      9955.5776 E_impro  =        59.0497 E_vdwl   =    -16217.9164 
E_coul   =     53886.3395 E_long   =    -41405.6512 E_tail   =         0.0000 
Enthalpy =     79586.1632 Temp     =       300.5159 Press    =       285.7766 
Pxx      =       -73.6264 Pxy      =       419.2500 Pxz      =       561.2477 
Pyy      =       150.9324 Pyz      =      -370.4329 Pzz      =       780.0237 
Volume   =    472318.3420 Lx       =       110.5715 Ly       =        55.2858 
Lz       =        77.2642 Density  =         0.9987 f_2      =      5351.6940 
v_Jxtime =         0.6264 
---------------- Step   740000 ----- CPU =  11488.9609 (sec) ----------------
Time     =   2220000.0000 TotEng   =     77618.9278 KinEng   =     40304.0420 
PotEng   =     37314.8858 E_bond   =     14269.0335 E_angle  =     16700.7271 
E_dihed  =      9964.0305 E_impro  =        60.1392 E_vdwl   =    -16157.1014 
E_coul   =     53870.4562 E_long   =    -41392.3994 E_tail   =         0.0000 
Enthalpy =     78327.8088 Temp     =       300.1037 Press    =       102.9112 
Pxx      =       -61.8643 Pxy      =        44.5869 Pxz      =       114.8391 
Pyy      =       249.6884 Pyz      =      -121.7070 Pzz      =       120.9095 
Volume   =    472318.3420 Lx       =       110.5715 Ly       =        55.2858 
Lz       =        77.2642 Density  =         0.9987 f_2      =      5423.5857 
v_Jxtime =         0.6348 
---------------- Step   750000 ----- CPU =  11643.9137 (sec) ----------------
Time     =   2250000.0000 TotEng   =     77619.1066 KinEng   =     40297.4565 
PotEng   =     37321.6501 E_bond   =     14276.3556 E_angle  =     16716.6336 
E_dihed  =      9959.5802 E_impro  =        59.2845 E_vdwl   =    -16189.5619 
E_coul   =     53890.7737 E_long   =    -41391.4156 E_tail   =         0.0000 
Enthalpy =     76514.4052 Temp     =       300.0546 Press    =      -160.3741 
Pxx      =      -213.4378 Pxy      =        48.4425 Pxz      =      -131.3322 
Pyy      =       -51.2883 Pyz      =       391.9424 Pzz      =      -216.3961 
Volume   =    472318.3420 Lx       =       110.5715 Ly       =        55.2858 
Lz       =        77.2642 Density  =         0.9987 f_2      =      5484.1627 
v_Jxtime =         0.6419 
---------------- Step   760000 ----- CPU =  11799.0341 (sec) ----------------
Time     =   2280000.0000 TotEng   =     77618.2525 KinEng   =     40445.7368 
PotEng   =     37172.5157 E_bond   =     14075.1430 E_angle  =     16727.1375 
E_dihed  =      9960.4139 E_impro  =        59.8801 E_vdwl   =    -16138.8087 
E_coul   =     53884.5610 E_long   =    -41395.8110 E_tail   =         0.0000 
Enthalpy =     78196.1769 Temp     =       301.1587 Press    =        83.8997 
Pxx      =       334.6451 Pxy      =       400.2430 Pxz      =         4.1085 
Pyy      =      -326.9072 Pyz      =      -205.5299 Pzz      =       243.9612 
Volume   =    472318.3420 Lx       =       110.5715 Ly       =        55.2858 
Lz       =        77.2642 Density  =         0.9987 f_2      =      5548.0913 
v_Jxtime =         0.6494 
---------------- Step   770000 ----- CPU =  11954.1519 (sec) ----------------
Time     =   2310000.0000 TotEng   =     77618.2860 KinEng   =     40410.5589 
PotEng   =     37207.7271 E_bond   =     14162.7962 E_angle  =     16632.9625 
E_dihed  =      9988.0250 E_impro  =        60.3059 E_vdwl   =    -16136.6330 
E_coul   =     53898.5677 E_long   =    -41398.2971 E_tail   =         0.0000 
Enthalpy =     78893.7241 Temp     =       300.8968 Press    =       185.1607 
Pxx      =      -162.0539 Pxy      =       241.9551 Pxz      =      -108.2281 
Pyy      =       122.7616 Pyz      =      -336.3274 Pzz      =       594.7743 
Volume   =    472318.3420 Lx       =       110.5715 Ly       =        55.2858 
Lz       =        77.2642 Density  =         0.9987 f_2      =      5613.5407 
v_Jxtime =         0.6571 
---------------- Step   780000 ----- CPU =  12109.1955 (sec) ----------------
Time     =   2340000.0000 TotEng   =     77618.8348 KinEng   =     40432.4254 
PotEng   =     37186.4093 E_bond   =     14255.5853 E_angle  =     16611.2923 
E_dihed  =      9839.4893 E_impro  =        57.7779 E_vdwl   =    -16066.2275 
E_coul   =     53890.7565 E_long   =    -41402.2644 E_tail   =         0.0000 
Enthalpy =     78572.5511 Temp     =       301.0596 Press    =       138.4550 
Pxx      =        -6.9645 Pxy      =       -85.5123 Pxz      =       428.2722 
Pyy      =       -27.1580 Pyz      =       -67.9600 Pzz      =       449.4874 
Volume   =    472318.3420 Lx       =       110.5715 Ly       =        55.2858 
Lz       =        77.2642 Density  =         0.9987 f_2      =      5707.3856 
v_Jxtime =         0.6681 
---------------- Step   790000 ----- CPU =  12264.1247 (sec) ----------------
Time     =   2370000.0000 TotEng   =     77618.5677 KinEng   =     40272.4015 
PotEng   =     37346.1662 E_bond   =     14406.4641 E_angle  =     16626.9479 
E_dihed  =      9866.0969 E_impro  =        58.9051 E_vdwl   =    -16120.8105 
E_coul   =     53906.1112 E_long   =    -41397.5486 E_tail   =         0.0000 
Enthalpy =     79110.3833 Temp     =       299.8681 Press    =       216.5731 
Pxx      =       353.7173 Pxy      =      -219.2269 Pxz      =      -468.2333 
Pyy      =       -66.2620 Pyz      =       208.3006 Pzz      =       362.2639 
Volume   =    472318.3420 Lx       =       110.5715 Ly       =        55.2858 
Lz       =        77.2642 Density  =         0.9987 f_2      =      5774.9179 
v_Jxtime =         0.6760 
---------------- Step   800000 ----- CPU =  12418.9488 (sec) ----------------
Time     =   2400000.0000 TotEng   =     77620.8129 KinEng   =     40255.8532 
PotEng   =     37364.9597 E_bond   =     14183.8033 E_angle  =     16717.0140 
E_dihed  =     10020.2260 E_impro  =        59.0588 E_vdwl   =    -16095.8232 
E_coul   =     53885.2680 E_long   =    -41404.5872 E_tail   =         0.0000 
Enthalpy =     81802.8517 Temp     =       299.7449 Press    =       607.1239 
Pxx      =       397.0475 Pxy      =       132.4560 Pxz      =        94.1042 
Pyy      =       589.2156 Pyz      =       134.2237 Pzz      =       835.1087 
Volume   =    472318.3420 Lx       =       110.5715 Ly       =        55.2858 
Lz       =        77.2642 Density  =         0.9987 f_2      =      5839.1774 
v_Jxtime =         0.6835 
---------------- Step   810000 ----- CPU =  12573.9346 (sec) ----------------
Time     =   2430000.0000 TotEng   =     77620.2953 KinEng   =     40289.1290 
PotEng   =     37331.1662 E_bond   =     14189.4757 E_angle  =     16643.8560 
E_dihed  =     10126.7674 E_impro  =        60.3489 E_vdwl   =    -16157.0309 
E_coul   =     53870.5706 E_long   =    -41402.8214 E_tail   =         0.0000 
Enthalpy =     76659.2893 Temp     =       299.9926 Press    =      -139.5132 
Pxx      =      -237.1748 Pxy      =      -136.3523 Pxz      =      -481.0142 
Pyy      =      -252.9227 Pyz      =      -201.2782 Pzz      =        71.5578 
Volume   =    472318.3420 Lx       =       110.5715 Ly       =        55.2858 
Lz       =        77.2642 Density  =         0.9987 f_2      =      5900.5168 
v_Jxtime =         0.6907 
---------------- Step   820000 ----- CPU =  12728.8311 (sec) ----------------
Time     =   2460000.0000 TotEng   =     77618.7617 KinEng   =     40417.5444 
PotEng   =     37201.2173 E_bond   =     14243.8616 E_angle  =     16570.9828 
E_dihed  =      9948.5425 E_impro  =        58.5637 E_vdwl   =    -16105.2818 
E_coul   =     53883.0520 E_long   =    -41398.5035 E_tail   =         0.0000 
Enthalpy =     78367.1631 Temp     =       300.9488 Press    =       108.6485 
Pxx      =      -144.5692 Pxy      =        61.4634 Pxz      =      -479.5647 
Pyy      =       536.5165 Pyz      =       426.4898 Pzz      =       -66.0017 
Volume   =    472318.3420 Lx       =       110.5715 Ly       =        55.2858 
Lz       =        77.2642 Density  =         0.9987 f_2      =      5977.6736 
v_Jxtime =         0.6997 
---------------- Step   830000 ----- CPU =  12898.2047 (sec) ----------------
Time     =   2490000.0000 TotEng   =     77618.9904 KinEng   =     40423.7962 
PotEng   =     37195.1941 E_bond   =     14114.9589 E_angle  =     16689.7542 
E_dihed  =      9889.7437 E_impro  =        58.8650 E_vdwl   =    -16046.5990 
E_coul   =     53896.0223 E_long   =    -41407.5510 E_tail   =         0.0000 
Enthalpy =     77582.7127 Temp     =       300.9954 Press    =        -5.2666 
Pxx      =      -117.6724 Pxy      =       -24.9385 Pxz      =       129.3495 
Pyy      =      -147.6386 Pyz      =      -566.0119 Pzz      =       249.5113 
Volume   =    472318.3420 Lx       =       110.5715 Ly       =        55.2858 
Lz       =        77.2642 Density  =         0.9987 f_2      =      6037.8943 
v_Jxtime =         0.7067 
---------------- Step   840000 ----- CPU =  13053.2516 (sec) ----------------
Time     =   2520000.0000 TotEng   =     77621.2779 KinEng   =     40214.2038 
PotEng   =     37407.0741 E_bond   =     14304.4298 E_angle  =     16635.7166 
E_dihed  =      9990.7094 E_impro  =        59.7230 E_vdwl   =    -16074.2331 
E_coul   =     53903.6979 E_long   =    -41412.9695 E_tail   =         0.0000 
Enthalpy =     76962.4681 Temp     =       299.4347 Press    =       -95.6422 
Pxx      =      -521.0476 Pxy      =        47.2399 Pxz      =       164.7931 
Pyy      =      -345.8670 Pyz      =      -446.3287 Pzz      =       579.9881 
Volume   =    472318.3420 Lx       =       110.5715 Ly       =        55.2858 
Lz       =        77.2642 Density  =         0.9987 f_2      =      6098.2886 
v_Jxtime =         0.7138 
---------------- Step   850000 ----- CPU =  13208.2435 (sec) ----------------
Time     =   2550000.0000 TotEng   =     77620.3241 KinEng   =     40197.7978 
PotEng   =     37422.5263 E_bond   =     14386.7596 E_angle  =     16854.1348 
E_dihed  =      9846.9215 E_impro  =        57.1838 E_vdwl   =    -16204.4658 
E_coul   =     53889.9780 E_long   =    -41407.9857 E_tail   =         0.0000 
Enthalpy =     74164.0525 Temp     =       299.3126 Press    =      -501.7613 
Pxx      =       -61.9172 Pxy      =       220.4662 Pxz      =      -176.3659 
Pyy      =      -764.1286 Pyz      =      -306.9639 Pzz      =      -679.2381 
Volume   =    472318.3420 Lx       =       110.5715 Ly       =        55.2858 
Lz       =        77.2642 Density  =         0.9987 f_2      =      6158.2218 
v_Jxtime =         0.7208 
---------------- Step   860000 ----- CPU =  13363.2789 (sec) ----------------
Time     =   2580000.0000 TotEng   =     77621.2386 KinEng   =     40230.3978 
PotEng   =     37390.8408 E_bond   =     14416.4272 E_angle  =     16588.3325 
E_dihed  =      9993.5602 E_impro  =        59.1876 E_vdwl   =    -16189.1788 
E_coul   =     53931.8659 E_long   =    -41409.3537 E_tail   =         0.0000 
Enthalpy =     74962.2748 Temp     =       299.5553 Press    =      -386.0128 
Pxx      =      -129.3143 Pxy      =       -52.5471 Pxz      =        57.7640 
Pyy      =      -172.8850 Pyz      =        17.9430 Pzz      =      -855.8391 
Volume   =    472318.3420 Lx       =       110.5715 Ly       =        55.2858 
Lz       =        77.2642 Density  =         0.9987 f_2      =      6235.0703 
v_Jxtime =         0.7298 
---------------- Step   870000 ----- CPU =  13518.1892 (sec) ----------------
Time     =   2610000.0000 TotEng   =     77618.8424 KinEng   =     40528.1549 
PotEng   =     37090.6875 E_bond   =     14140.1910 E_angle  =     16531.1965 
E_dihed  =      9972.5300 E_impro  =        58.1033 E_vdwl   =    -16132.9665 
E_coul   =     53935.5501 E_long   =    -41413.9170 E_tail   =         0.0000 
Enthalpy =     75595.6232 Temp     =       301.7724 Press    =      -293.7191 
Pxx      =      -499.3587 Pxy      =        95.0416 Pxz      =       108.9045 
Pyy      =       -99.3315 Pyz      =       401.7969 Pzz      =      -282.4672 
Volume   =    472318.3420 Lx       =       110.5715 Ly       =        55.2858 
Lz       =        77.2642 Density  =         0.9987 f_2      =      6313.0448 
v_Jxtime =         0.7390 
---------------- Step   880000 ----- CPU =  13673.1111 (sec) ----------------
Time     =   2640000.0000 TotEng   =     77618.8068 KinEng   =     40498.3054 
PotEng   =     37120.5014 E_bond   =     14106.1616 E_angle  =     16612.7222 
E_dihed  =      9958.6219 E_impro  =        58.5364 E_vdwl   =    -16107.4714 
E_coul   =     53894.1481 E_long   =    -41402.2174 E_tail   =         0.0000 
Enthalpy =     76708.8501 Temp     =       301.5502 Press    =      -132.1022 
Pxx      =       251.1133 Pxy      =       159.0096 Pxz      =        98.5961 
Pyy      =      -617.1067 Pyz      =        54.4533 Pzz      =       -30.3132 
Volume   =    472318.3420 Lx       =       110.5715 Ly       =        55.2858 
Lz       =        77.2642 Density  =         0.9987 f_2      =      6377.5065 
v_Jxtime =         0.7465 
---------------- Step   890000 ----- CPU =  13827.9440 (sec) ----------------
Time     =   2670000.0000 TotEng   =     77619.1902 KinEng   =     40415.7425 
PotEng   =     37203.4477 E_bond   =     14138.6315 E_angle  =     16533.9876 
E_dihed  =     10149.1488 E_impro  =        60.3480 E_vdwl   =    -16186.3216 
E_coul   =     53911.2072 E_long   =    -41403.5539 E_tail   =         0.0000 
Enthalpy =     73784.9721 Temp     =       300.9354 Press    =      -556.6294 
Pxx      =      -745.5177 Pxy      =        99.4981 Pxz      =      -227.0479 
Pyy      =      -202.3459 Pyz      =        54.4480 Pzz      =      -722.0245 
Volume   =    472318.3420 Lx       =       110.5715 Ly       =        55.2858 
Lz       =        77.2642 Density  =         0.9987 f_2      =      6441.3445 
v_Jxtime =         0.7540 
---------------- Step   900000 ----- CPU =  13982.7716 (sec) ----------------
Time     =   2700000.0000 TotEng   =     77620.1180 KinEng   =     40464.9384 
PotEng   =     37155.1796 E_bond   =     14196.5883 E_angle  =     16530.5106 
E_dihed  =      9996.2110 E_impro  =        59.6082 E_vdwl   =    -16101.4515 
E_coul   =     53882.3585 E_long   =    -41408.6455 E_tail   =         0.0000 
Enthalpy =     78954.9462 Temp     =       301.3017 Press    =       193.7826 
Pxx      =       290.3168 Pxy      =        54.7864 Pxz      =      -146.4836 
Pyy      =       538.0593 Pyz      =      -309.4523 Pzz      =      -247.0284 
Volume   =    472318.3420 Lx       =       110.5715 Ly       =        55.2858 
Lz       =        77.2642 Density  =         0.9987 f_2      =      6515.2989 
v_Jxtime =         0.7626 
---------------- Step   910000 ----- CPU =  14137.5469 (sec) ----------------
Time     =   2730000.0000 TotEng   =     77621.7615 KinEng   =     40197.5991 
PotEng   =     37424.1624 E_bond   =     14268.3868 E_angle  =     16664.5089 
E_dihed  =      9953.1831 E_impro  =        58.8799 E_vdwl   =    -16025.8668 
E_coul   =     53916.2027 E_long   =    -41411.1322 E_tail   =         0.0000 
Enthalpy =     79340.5430 Temp     =       299.3111 Press    =       249.5227 
Pxx      =       459.7428 Pxy      =       106.3078 Pxz      =      -237.0726 
Pyy      =       441.2754 Pyz      =       127.2914 Pzz      =      -152.4503 
Volume   =    472318.3420 Lx       =       110.5715 Ly       =        55.2858 
Lz       =        77.2642 Density  =         0.9987 f_2      =      6588.6404 
v_Jxtime =         0.7712 
---------------- Step   920000 ----- CPU =  14292.4817 (sec) ----------------
Time     =   2760000.0000 TotEng   =     77618.8615 KinEng   =     40435.0520 
PotEng   =     37183.8095 E_bond   =     14160.7821 E_angle  =     16644.8372 
E_dihed  =      9935.3402 E_impro  =        59.3847 E_vdwl   =    -16105.6141 
E_coul   =     53897.2851 E_long   =    -41408.2057 E_tail   =         0.0000 
Enthalpy =     78688.7013 Temp     =       301.0792 Press    =       155.3131 
Pxx      =       218.7604 Pxy      =      -245.4355 Pxz      =      -291.0296 
Pyy      =       341.9681 Pyz      =      -272.0659 Pzz      =       -94.7892 
Volume   =    472318.3420 Lx       =       110.5715 Ly       =        55.2858 
Lz       =        77.2642 Density  =         0.9987 f_2      =      6674.2263 
v_Jxtime =         0.7812 
---------------- Step   930000 ----- CPU =  14447.3494 (sec) ----------------
Time     =   2790000.0000 TotEng   =     77618.8732 KinEng   =     40377.6668 
PotEng   =     37241.2065 E_bond   =     14250.2782 E_angle  =     16701.8087 
E_dihed  =      9855.1284 E_impro  =        59.0173 E_vdwl   =    -16119.2738 
E_coul   =     53903.5196 E_long   =    -41409.2719 E_tail   =         0.0000 
Enthalpy =     79184.6270 Temp     =       300.6519 Press    =       227.3070 
Pxx      =       235.0562 Pxy      =       262.2732 Pxz      =      -199.7499 
Pyy      =       342.6184 Pyz      =       217.6515 Pzz      =       104.2463 
Volume   =    472318.3420 Lx       =       110.5715 Ly       =        55.2858 
Lz       =        77.2642 Density  =         0.9987 f_2      =      6746.5892 
v_Jxtime =         0.7897 
---------------- Step   940000 ----- CPU =  14602.6653 (sec) ----------------
Time     =   2820000.0000 TotEng   =     77620.7713 KinEng   =     40226.9301 
PotEng   =     37393.8412 E_bond   =     14036.4008 E_angle  =     16812.5660 
E_dihed  =     10120.0411 E_impro  =        59.4336 E_vdwl   =    -16102.9124 
E_coul   =     53881.5971 E_long   =    -41413.2850 E_tail   =         0.0000 
Enthalpy =     83323.8093 Temp     =       299.5295 Press    =       827.9337 
Pxx      =       319.1834 Pxy      =       102.6923 Pxz      =      -574.8698 
Pyy      =       648.9543 Pyz      =       497.9145 Pzz      =      1515.6635 
Volume   =    472318.3420 Lx       =       110.5715 Ly       =        55.2858 
Lz       =        77.2642 Density  =         0.9987 f_2      =      6812.2005 
v_Jxtime =         0.7974 
---------------- Step   950000 ----- CPU =  14757.6730 (sec) ----------------
Time     =   2850000.0000 TotEng   =     77620.0782 KinEng   =     40322.9704 
PotEng   =     37297.1078 E_bond   =     14238.3493 E_angle  =     16511.0296 
E_dihed  =     10119.0450 E_impro  =        59.9902 E_vdwl   =    -16046.4624 
E_coul   =     53838.5348 E_long   =    -41423.3787 E_tail   =         0.0000 
Enthalpy =     81706.2681 Temp     =       300.2446 Press    =       593.2092 
Pxx      =       393.5641 Pxy      =       324.2876 Pxz      =       656.5434 
Pyy      =       425.5531 Pyz      =        -7.3890 Pzz      =       960.5103 
Volume   =    472318.3420 Lx       =       110.5715 Ly       =        55.2858 
Lz       =        77.2642 Density  =         0.9987 f_2      =      6872.2320 
v_Jxtime =         0.8044 
---------------- Step   960000 ----- CPU =  14912.7949 (sec) ----------------
Time     =   2880000.0000 TotEng   =     77620.7937 KinEng   =     40450.0659 
PotEng   =     37170.7278 E_bond   =     14245.0099 E_angle  =     16772.7581 
E_dihed  =      9829.2465 E_impro  =        58.2871 E_vdwl   =    -16204.0894 
E_coul   =     53889.7831 E_long   =    -41420.2675 E_tail   =         0.0000 
Enthalpy =     76544.5025 Temp     =       301.1910 Press    =      -156.2497 
Pxx      =      -411.3459 Pxy      =       281.7397 Pxz      =       122.2036 
Pyy      =      -461.6491 Pyz      =       188.8184 Pzz      =       404.2460 
[...]
Pxx      =       590.3429 Pxy      =      -287.9782 Pxz      =      -286.5299 
Pyy      =       259.3367 Pyz      =       126.4325 Pzz      =      -106.6226 
Volume   =    472318.3420 Lx       =       110.5715 Ly       =        55.2858 
Lz       =        77.2642 Density  =         0.9987 f_2      =     12988.9194 
v_Jxtime =         1.5204 
---------------- Step  1790000 ----- CPU =  27792.4633 (sec) ----------------
Time     =   5370000.0000 TotEng   =     77622.2120 KinEng   =     40510.0533 
PotEng   =     37112.1586 E_bond   =     14064.6020 E_angle  =     16711.2594 
E_dihed  =      9941.9226 E_impro  =        58.2310 E_vdwl   =    -16136.0010 
E_coul   =     53881.1161 E_long   =    -41408.9715 E_tail   =         0.0000 
Enthalpy =     79781.6489 Temp     =       301.6376 Press    =       313.4944 
Pxx      =        64.2294 Pxy      =       -93.4409 Pxz      =        67.9106 
Pyy      =       612.3351 Pyz      =       143.1957 Pzz      =       263.9188 
Volume   =    472318.3420 Lx       =       110.5715 Ly       =        55.2858 
Lz       =        77.2642 Density  =         0.9987 f_2      =     13064.0219 
v_Jxtime =         1.5292 
---------------- Step  1800000 ----- CPU =  27947.7480 (sec) ----------------
Time     =   5400000.0000 TotEng   =     77624.4375 KinEng   =     40186.9625 
PotEng   =     37437.4750 E_bond   =     14339.5511 E_angle  =     16706.7443 
E_dihed  =      9935.3736 E_impro  =        59.1069 E_vdwl   =    -16098.4299 
E_coul   =     53901.2759 E_long   =    -41406.1469 E_tail   =         0.0000 
Enthalpy =     78875.2235 Temp     =       299.2319 Press    =       181.5818 
Pxx      =       566.9656 Pxy      =       340.2533 Pxz      =       226.0223 
Pyy      =       -68.9100 Pyz      =        55.4034 Pzz      =        46.6898 
Volume   =    472318.3420 Lx       =       110.5715 Ly       =        55.2858 
Lz       =        77.2642 Density  =         0.9987 f_2      =     13147.8699 
v_Jxtime =         1.5390 
---------------- Step  1810000 ----- CPU =  28102.9488 (sec) ----------------
Time     =   5430000.0000 TotEng   =     77622.1583 KinEng   =     40446.4712 
PotEng   =     37175.6871 E_bond   =     14043.3706 E_angle  =     16667.3184 
E_dihed  =      9907.8887 E_impro  =        60.5040 E_vdwl   =    -16010.4829 
E_coul   =     53908.6602 E_long   =    -41401.5719 E_tail   =         0.0000 
Enthalpy =     78809.8705 Temp     =       301.1642 Press    =       172.4251 
Pxx      =       415.1790 Pxy      =      -301.6271 Pxz      =       -82.7089 
Pyy      =       467.8221 Pyz      =       -34.4361 Pzz      =      -365.7258 
Volume   =    472318.3420 Lx       =       110.5715 Ly       =        55.2858 
Lz       =        77.2642 Density  =         0.9987 f_2      =     13214.8766 
v_Jxtime =         1.5468 
---------------- Step  1820000 ----- CPU =  28258.0773 (sec) ----------------
Time     =   5460000.0000 TotEng   =     77624.6665 KinEng   =     40135.9179 
PotEng   =     37488.7486 E_bond   =     14271.8761 E_angle  =     16754.5119 
E_dihed  =      9875.2351 E_impro  =        59.5820 E_vdwl   =    -15977.2508 
E_coul   =     53909.7737 E_long   =    -41404.9795 E_tail   =         0.0000 
Enthalpy =     79990.6334 Temp     =       298.8518 Press    =       343.4772 
Pxx      =        97.6708 Pxy      =       576.7958 Pxz      =      -178.8824 
Pyy      =       589.8074 Pyz      =         4.2880 Pzz      =       342.9535 
Volume   =    472318.3420 Lx       =       110.5715 Ly       =        55.2858 
Lz       =        77.2642 Density  =         0.9987 f_2      =     13279.9843 
v_Jxtime =         1.5544 
---------------- Step  1830000 ----- CPU =  28413.6824 (sec) ----------------
Time     =   5490000.0000 TotEng   =     77622.6679 KinEng   =     40425.2465 
PotEng   =     37197.4213 E_bond   =     14205.0393 E_angle  =     16606.3619 
E_dihed  =      9929.5658 E_impro  =        59.9145 E_vdwl   =    -16084.3694 
E_coul   =     53884.6424 E_long   =    -41403.7331 E_tail   =         0.0000 
Enthalpy =     80888.7205 Temp     =       301.0062 Press    =       474.1464 
Pxx      =       354.1492 Pxy      =       413.7925 Pxz      =       245.3158 
Pyy      =       851.6911 Pyz      =      -332.1131 Pzz      =       216.5990 
Volume   =    472318.3420 Lx       =       110.5715 Ly       =        55.2858 
Lz       =        77.2642 Density  =         0.9987 f_2      =     13351.0847 
v_Jxtime =         1.5628 
---------------- Step  1840000 ----- CPU =  28569.0436 (sec) ----------------
Time     =   5520000.0000 TotEng   =     77622.3617 KinEng   =     40486.5951 
PotEng   =     37135.7666 E_bond   =     14147.9402 E_angle  =     16652.2210 
E_dihed  =      9890.8980 E_impro  =        58.6239 E_vdwl   =    -16104.5472 
E_coul   =     53894.4963 E_long   =    -41403.8655 E_tail   =         0.0000 
Enthalpy =     79086.1496 Temp     =       301.4630 Press    =       212.5042 
Pxx      =       442.3807 Pxy      =      -302.5090 Pxz      =      -118.9333 
Pyy      =        43.9597 Pyz      =      -421.7757 Pzz      =       151.1722 
Volume   =    472318.3420 Lx       =       110.5715 Ly       =        55.2858 
Lz       =        77.2642 Density  =         0.9987 f_2      =     13423.7415 
v_Jxtime =         1.5713 
---------------- Step  1850000 ----- CPU =  28725.0885 (sec) ----------------
Time     =   5550000.0000 TotEng   =     77622.7726 KinEng   =     40505.0085 
PotEng   =     37117.7641 E_bond   =     14190.8228 E_angle  =     16652.5589 
E_dihed  =      9806.1851 E_impro  =        58.9588 E_vdwl   =    -16095.2476 
E_coul   =     53913.4144 E_long   =    -41408.9284 E_tail   =         0.0000 
Enthalpy =     77171.7742 Temp     =       301.6001 Press    =       -65.4733 
Pxx      =       -38.0062 Pxy      =       -10.4835 Pxz      =       -16.1411 
Pyy      =        67.2168 Pyz      =       -62.8287 Pzz      =      -225.6305 
Volume   =    472318.3420 Lx       =       110.5715 Ly       =        55.2858 
Lz       =        77.2642 Density  =         0.9987 f_2      =     13494.8921 
v_Jxtime =         1.5796 
---------------- Step  1860000 ----- CPU =  28880.6700 (sec) ----------------
Time     =   5580000.0000 TotEng   =     77623.0161 KinEng   =     40226.9194 
PotEng   =     37396.0967 E_bond   =     14208.7835 E_angle  =     16841.3076 
E_dihed  =      9931.2070 E_impro  =        60.0788 E_vdwl   =    -16140.4268 
E_coul   =     53909.0494 E_long   =    -41413.9028 E_tail   =         0.0000 
Enthalpy =     75922.6134 Temp     =       299.5294 Press    =      -246.8545 
Pxx      =        20.3461 Pxy      =       133.2484 Pxz      =      -161.1595 
Pyy      =      -358.6345 Pyz      =         0.9518 Pzz      =      -402.2752 
Volume   =    472318.3420 Lx       =       110.5715 Ly       =        55.2858 
Lz       =        77.2642 Density  =         0.9987 f_2      =     13568.5597 
v_Jxtime =         1.5882 
---------------- Step  1870000 ----- CPU =  29036.2670 (sec) ----------------
Time     =   5610000.0000 TotEng   =     77623.8943 KinEng   =     40223.3472 
PotEng   =     37400.5471 E_bond   =     14462.6206 E_angle  =     16644.0983 
E_dihed  =      9843.4645 E_impro  =        57.3323 E_vdwl   =    -16095.2945 
E_coul   =     53893.1616 E_long   =    -41404.8357 E_tail   =         0.0000 
Enthalpy =     75942.6314 Temp     =       299.5028 Press    =      -244.0759 
Pxx      =       150.5451 Pxy      =      -466.2923 Pxz      =       100.7299 
Pyy      =      -258.5805 Pyz      =       199.7235 Pzz      =      -624.1924 
Volume   =    472318.3420 Lx       =       110.5715 Ly       =        55.2858 
Lz       =        77.2642 Density  =         0.9987 f_2      =     13657.1256 
v_Jxtime =         1.5986 
---------------- Step  1880000 ----- CPU =  29191.6389 (sec) ----------------
Time     =   5640000.0000 TotEng   =     77621.3767 KinEng   =     40434.0569 
PotEng   =     37187.3198 E_bond   =     14152.3186 E_angle  =     16716.8108 
E_dihed  =      9919.7601 E_impro  =        59.1714 E_vdwl   =    -16179.2266 
E_coul   =     53929.9570 E_long   =    -41411.4716 E_tail   =         0.0000 
Enthalpy =     76256.8753 Temp     =       301.0718 Press    =      -198.0903 
Pxx      =         9.3892 Pxy      =       118.8421 Pxz      =        -5.1435 
Pyy      =      -148.7121 Pyz      =        83.2363 Pzz      =      -454.9482 
Volume   =    472318.3420 Lx       =       110.5715 Ly       =        55.2858 
Lz       =        77.2642 Density  =         0.9987 f_2      =     13735.9444 
v_Jxtime =         1.6078 
---------------- Step  1890000 ----- CPU =  29346.7895 (sec) ----------------
Time     =   5670000.0000 TotEng   =     77622.5541 KinEng   =     40344.9382 
PotEng   =     37277.6159 E_bond   =     14089.4304 E_angle  =     16687.9494 
E_dihed  =     10021.3686 E_impro  =        59.7238 E_vdwl   =    -16107.4195 
E_coul   =     53932.0804 E_long   =    -41405.5172 E_tail   =         0.0000 
Enthalpy =     80065.5441 Temp     =       300.4082 Press    =       354.6590 
Pxx      =        36.5455 Pxy      =        62.7665 Pxz      =       441.1087 
Pyy      =       436.2107 Pyz      =      -229.9824 Pzz      =       591.2208 
Volume   =    472318.3420 Lx       =       110.5715 Ly       =        55.2858 
Lz       =        77.2642 Density  =         0.9987 f_2      =     13815.4954 
v_Jxtime =         1.6171 
---------------- Step  1900000 ----- CPU =  29502.1117 (sec) ----------------
Time     =   5700000.0000 TotEng   =     77623.8939 KinEng   =     40230.6569 
PotEng   =     37393.2370 E_bond   =     14116.3386 E_angle  =     16827.0185 
E_dihed  =      9993.7947 E_impro  =        61.5962 E_vdwl   =    -16078.0411 
E_coul   =     53884.3310 E_long   =    -41411.8009 E_tail   =         0.0000 
Enthalpy =     73343.6313 Temp     =       299.5572 Press    =      -621.3835 
Pxx      =      -489.3561 Pxy      =         3.1608 Pxz      =        22.5639 
Pyy      =      -572.7067 Pyz      =       359.0435 Pzz      =      -802.0877 
Volume   =    472318.3420 Lx       =       110.5715 Ly       =        55.2858 
Lz       =        77.2642 Density  =         0.9987 f_2      =     13883.0477 
v_Jxtime =         1.6250 
---------------- Step  1910000 ----- CPU =  29657.9001 (sec) ----------------
Time     =   5730000.0000 TotEng   =     77625.2535 KinEng   =     40165.8103 
PotEng   =     37459.4433 E_bond   =     14253.2451 E_angle  =     16651.2824 
E_dihed  =      9992.3977 E_impro  =        59.7330 E_vdwl   =    -15976.2943 
E_coul   =     53891.9017 E_long   =    -41412.8223 E_tail   =         0.0000 
Enthalpy =     80766.3273 Temp     =       299.0744 Press    =       456.0027 
Pxx      =       110.2083 Pxy      =         2.9469 Pxz      =       -23.8478 
Pyy      =       425.2295 Pyz      =       -38.7161 Pzz      =       832.5704 
Volume   =    472318.3420 Lx       =       110.5715 Ly       =        55.2858 
Lz       =        77.2642 Density  =         0.9987 f_2      =     13966.5511 
v_Jxtime =         1.6348 
---------------- Step  1920000 ----- CPU =  29813.2921 (sec) ----------------
Time     =   5760000.0000 TotEng   =     77622.5234 KinEng   =     40284.8662 
PotEng   =     37337.6573 E_bond   =     14071.6434 E_angle  =     16928.4706 
E_dihed  =      9934.3911 E_impro  =        60.2892 E_vdwl   =    -16125.2812 
E_coul   =     53887.6406 E_long   =    -41419.4963 E_tail   =         0.0000 
Enthalpy =     75371.4078 Temp     =       299.9609 Press    =      -326.8038 
Pxx      =        82.9562 Pxy      =        -5.2519 Pxz      =       208.8770 
Pyy      =      -362.3761 Pyz      =        10.6204 Pzz      =      -700.9915 
Volume   =    472318.3420 Lx       =       110.5715 Ly       =        55.2858 
Lz       =        77.2642 Density  =         0.9987 f_2      =     14018.4255 
v_Jxtime =         1.6409 
---------------- Step  1930000 ----- CPU =  29968.4424 (sec) ----------------
Time     =   5790000.0000 TotEng   =     77622.4342 KinEng   =     40522.7009 
PotEng   =     37099.7332 E_bond   =     14109.5528 E_angle  =     16802.7942 
E_dihed  =      9808.5353 E_impro  =        58.8375 E_vdwl   =    -16133.6826 
E_coul   =     53877.7217 E_long   =    -41424.0258 E_tail   =         0.0000 
Enthalpy =     79216.8641 Temp     =       301.7318 Press    =       231.4700 
Pxx      =       333.6243 Pxy      =       130.6337 Pxz      =        95.0187 
Pyy      =      -508.4175 Pyz      =       216.5857 Pzz      =       869.2033 
Volume   =    472318.3420 Lx       =       110.5715 Ly       =        55.2858 
Lz       =        77.2642 Density  =         0.9987 f_2      =     14078.8278 
v_Jxtime =         1.6480 
---------------- Step  1940000 ----- CPU =  30123.5081 (sec) ----------------
Time     =   5820000.0000 TotEng   =     77623.9684 KinEng   =     40458.7636 
PotEng   =     37165.2048 E_bond   =     14208.0222 E_angle  =     16575.1435 
E_dihed  =      9983.3570 E_impro  =        59.5458 E_vdwl   =    -16148.4015 
E_coul   =     53907.1742 E_long   =    -41419.6364 E_tail   =         0.0000 
Enthalpy =     80164.8593 Temp     =       301.2557 Press    =       368.8717 
Pxx      =       700.9199 Pxy      =       -70.3854 Pxz      =        17.1193 
Pyy      =       430.4799 Pyz      =       302.0226 Pzz      =       -24.7848 
Volume   =    472318.3420 Lx       =       110.5715 Ly       =        55.2858 
Lz       =        77.2642 Density  =         0.9987 f_2      =     14147.2305 
v_Jxtime =         1.6560 
---------------- Step  1950000 ----- CPU =  30278.8148 (sec) ----------------
Time     =   5850000.0000 TotEng   =     77621.0742 KinEng   =     40398.7312 
PotEng   =     37222.3430 E_bond   =     14168.8669 E_angle  =     16687.8370 
E_dihed  =      9932.2755 E_impro  =        59.2644 E_vdwl   =    -16127.3402 
E_coul   =     53914.3854 E_long   =    -41412.9460 E_tail   =         0.0000 
Enthalpy =     75393.0196 Temp     =       300.8087 Press    =      -323.4559 
Pxx      =      -415.9465 Pxy      =       -85.7057 Pxz      =      -489.2297 
Pyy      =         6.8848 Pyz      =      -283.8415 Pzz      =      -561.3061 
Volume   =    472318.3420 Lx       =       110.5715 Ly       =        55.2858 
Lz       =        77.2642 Density  =         0.9987 f_2      =     14210.0194 
v_Jxtime =         1.6633 
---------------- Step  1960000 ----- CPU =  30433.9654 (sec) ----------------
Time     =   5880000.0000 TotEng   =     77624.9379 KinEng   =     40452.8416 
PotEng   =     37172.0963 E_bond   =     14230.6302 E_angle  =     16643.5634 
E_dihed  =      9862.0002 E_impro  =        58.4583 E_vdwl   =    -16105.6153 
E_coul   =     53901.6148 E_long   =    -41418.5552 E_tail   =         0.0000 
Enthalpy =     79717.6779 Temp     =       301.2116 Press    =       303.8117 
Pxx      =      -195.4103 Pxy      =        72.4369 Pxz      =      -159.7674 
Pyy      =       529.6944 Pyz      =       -83.2419 Pzz      =       577.1512 
Volume   =    472318.3420 Lx       =       110.5715 Ly       =        55.2858 
Lz       =        77.2642 Density  =         0.9987 f_2      =     14298.3777 
v_Jxtime =         1.6737 
---------------- Step  1970000 ----- CPU =  30589.5185 (sec) ----------------
Time     =   5910000.0000 TotEng   =     77624.0748 KinEng   =     40288.3549 
PotEng   =     37335.7199 E_bond   =     14293.8445 E_angle  =     16718.0996 
E_dihed  =      9891.1794 E_impro  =        59.3974 E_vdwl   =    -16098.3716 
E_coul   =     53890.7049 E_long   =    -41419.1345 E_tail   =         0.0000 
Enthalpy =     76994.5181 Temp     =       299.9869 Press    =       -91.3954 
Pxx      =      -145.5985 Pxy      =      -135.7017 Pxz      =       322.4088 
Pyy      =      -163.8642 Pyz      =      -123.3649 Pzz      =        35.2766 
Volume   =    472318.3420 Lx       =       110.5715 Ly       =        55.2858 
Lz       =        77.2642 Density  =         0.9987 f_2      =     14365.0415 
v_Jxtime =         1.6815 
---------------- Step  1980000 ----- CPU =  30744.7247 (sec) ----------------
Time     =   5940000.0000 TotEng   =     77623.5995 KinEng   =     40453.8634 
PotEng   =     37169.7361 E_bond   =     14173.5499 E_angle  =     16612.5357 
E_dihed  =      9969.8184 E_impro  =        59.6757 E_vdwl   =    -16107.8011 
E_coul   =     53882.3450 E_long   =    -41420.3877 E_tail   =         0.0000 
Enthalpy =     76385.6201 Temp     =       301.2192 Press    =      -179.7226 
Pxx      =       -43.4987 Pxy      =      -191.9950 Pxz      =       279.3745 
Pyy      =       -83.7748 Pyz      =      -267.6207 Pzz      =      -411.8944 
Volume   =    472318.3420 Lx       =       110.5715 Ly       =        55.2858 
Lz       =        77.2642 Density  =         0.9987 f_2      =     14431.3305 
v_Jxtime =         1.6892 
---------------- Step  1990000 ----- CPU =  30900.1926 (sec) ----------------
Time     =   5970000.0000 TotEng   =     77623.7801 KinEng   =     40466.5606 
PotEng   =     37157.2195 E_bond   =     14118.4451 E_angle  =     16761.7386 
E_dihed  =      9909.3146 E_impro  =        58.7095 E_vdwl   =    -16170.6435 
E_coul   =     53887.6801 E_long   =    -41408.0249 E_tail   =         0.0000 
Enthalpy =     76340.0682 Temp     =       301.3138 Press    =      -186.3618 
Pxx      =       159.0524 Pxy      =      -120.2442 Pxz      =       150.7203 
Pyy      =      -206.9764 Pyz      =       -30.9857 Pzz      =      -511.1614 
Volume   =    472318.3420 Lx       =       110.5715 Ly       =        55.2858 
Lz       =        77.2642 Density  =         0.9987 f_2      =     14510.5389 
v_Jxtime =         1.6985 
---------------- Step  2000000 ----- CPU =  31055.3167 (sec) ----------------
Time     =   6000000.0000 TotEng   =     77625.0562 KinEng   =     40318.0248 
PotEng   =     37307.0314 E_bond   =     14247.7892 E_angle  =     16785.4257 
E_dihed  =      9946.6528 E_impro  =        59.1205 E_vdwl   =    -16207.0037 
E_coul   =     53889.8243 E_long   =    -41414.7774 E_tail   =         0.0000 
Enthalpy =     75173.0338 Temp     =       300.2078 Press    =      -355.9703 
Pxx      =      -320.1899 Pxy      =       -22.8983 Pxz      =       276.9763 
Pyy      =      -673.0054 Pyz      =        61.0961 Pzz      =       -74.7156 
Volume   =    472318.3420 Lx       =       110.5715 Ly       =        55.2858 
Lz       =        77.2642 Density  =         0.9987 f_2      =     14573.6194 
v_Jxtime =         1.7059 
Loop time of 31055.3 on 8 procs for 2000000 steps with 45056 atoms

Performance: 16.693 ns/day, 1.438 hours/ns, 64.401 timesteps/s
88.6% CPU use with 8 MPI tasks x 1 OpenMP threads

MPI task timing breakdown:
Section |  min time  |  avg time  |  max time  |%varavg| %total
---------------------------------------------------------------
Pair    | 7467       | 8130       | 8822.7     | 586.6 | 26.18
Bond    | 9637.7     | 9673.9     | 9708.1     |  23.1 | 31.15
Kspace  | 4347.6     | 4595.1     | 4813.8     | 262.3 | 14.80
Neigh   | 293.76     | 296.18     | 299.56     |  11.4 |  0.95
Comm    | 6024.6     | 6723.2     | 7194.7     | 479.5 | 21.65
Output  | 39.074     | 39.076     | 39.093     |   0.1 |  0.13
Modify  | 585.82     | 622.73     | 647.47     |  77.7 |  2.01
Other   |            | 975.1      |            |       |  3.14

Nlocal:    5632 ave 5675 max 5590 min
Histogram: 1 1 0 0 2 2 0 0 1 1
Nghost:    23868.1 ave 23939 max 23786 min
Histogram: 1 1 1 0 1 0 1 1 0 2
Neighs:    0 ave 0 max 0 min
Histogram: 8 0 0 0 0 0 0 0 0 0

Total # of neighbors = 0
Ave neighs/atom = 0
Ave special neighs/atom = 10.5455
Neighbor list builds = 197637
Dangerous builds = 173345
write_restart  s20e500Ne10.rst
PPPM initialization ...
  using 12-bit tables for long-range coulomb (../kspace.cpp:321)
  G vector (1/distance) = 0.241002
  grid = 60 36 45
  stencil order = 5
  estimated absolute RMS force accuracy = 0.000399067
  estimated relative force accuracy = 1.20178e-06
  using single precision FFTs
  3d grid and FFT values/proc = 27434 12960

Please see the log.cite file for references relevant to this simulation

Total wall time: 8:37:44
