dump           1 all custom 100  s20e500Ne5.dump  id type mol x y z vx vy vz

thermo_style   custom time etotal ke pe ebond eangle edihed eimp evdwl ecoul elong etail enthalpy temp press pxx pxy pxz pyy pyz pzz vol lx ly lz density f_2 c_lFlux[3] c_rFlux[3] v_Jztime
thermo_modify  line multi
thermo         10000
thermo_modify  flush yes
restart        50000 s20e500Ne51.rst    s20e500Ne52.rst
run_style      respa 3 3 2 bond 1 angle 1 dihedral 2 pair 2 kspace 3
Respa levels:
  1 = bond angle
  2 = dihedral improper pair
  3 = kspace
run            14000000
PPPM initialization ...
  using 12-bit tables for long-range coulomb (../kspace.cpp:321)
  G vector (1/distance) = 0.242249
  grid = 36 36 80
  stencil order = 5
  estimated absolute RMS force accuracy = 0.000363085
  estimated relative force accuracy = 1.09342e-06
  using single precision FFTs
  3d grid and FFT values/proc = 3840 720
WARNING: More than one compute ke/atom (../compute_ke_atom.cpp:55)
WARNING: More than one compute ke/atom (../compute_ke_atom.cpp:55)
Neighbor list info ...
  update every 1 steps, delay 10 steps, check yes
  max neighbors/atom: 2000, page size: 100000
  master list distance cutoff = 14
  ghost atom cutoff = 14
  binsize = 7, bins = 8 8 23
  1 neighbor lists, perpetual/occasional/extra = 1 0 0
  (1) pair lj/charmm/coul/long, perpetual
      attributes: half, newton on
      pair build: half/bin/newton
      stencil: half/bin/3d/newton
      bin: standard
Per MPI rank memory allocation (min/avg/max) = 20.63 | 20.65 | 21.02 Mbytes
---------------- Step        0 ----- CPU =      0.0000 (sec) ----------------
Time     =         0.0000 TotEng   =     77461.8092 KinEng   =     40590.4004 
PotEng   =     36871.4088 E_bond   =     14038.4372 E_angle  =     16644.4950 
E_dihed  =      9904.4001 E_impro  =        58.8616 E_vdwl   =    -16262.9744 
E_coul   =     54102.6529 E_long   =    -41614.4635 E_tail   =         0.0000 
Enthalpy =     73803.9046 Temp     =       302.2359 Press    =      -532.1076 
Pxx      =      -166.8497 Pxy      =      -134.5026 Pxz      =      -260.5480 
Pyy      =       -37.3598 Pyz      =       635.6379 Pzz      =     -1392.1133 
Volume   =    471364.6779 Lx       =        55.2485 Ly       =        55.2485 
Lz       =       154.4243 Density  =         1.0007 f_2      =         0.0000 
c_lFlux[3] =         6.8872 c_rFlux[3] =        -8.5581 v_Jztime =         0.0000 
---------------- Step    10000 ----- CPU =    154.0571 (sec) ----------------
Time     =     30000.0000 TotEng   =     77462.7761 KinEng   =     40244.0960 
PotEng   =     37218.6801 E_bond   =     14311.8025 E_angle  =     16674.1846 
E_dihed  =      9861.5426 E_impro  =        59.2870 E_vdwl   =    -16182.1516 
E_coul   =     54100.9772 E_long   =    -41606.9621 E_tail   =         0.0000 
Enthalpy =     74068.6901 Temp     =       299.6573 Press    =      -493.7305 
Pxx      =       -21.0384 Pxy      =       -47.4575 Pxz      =       -17.2601 
Pyy      =      -155.0453 Pyz      =      -307.6053 Pzz      =     -1305.1077 
Volume   =    471364.6779 Lx       =        55.2485 Ly       =        55.2485 
Lz       =       154.4243 Density  =         1.0007 f_2      =       185.4354 
c_lFlux[3] =         7.8661 c_rFlux[3] =         8.1088 v_Jztime =         0.0304 
---------------- Step    20000 ----- CPU =    308.1923 (sec) ----------------
Time     =     60000.0000 TotEng   =     77460.3133 KinEng   =     40371.6095 
PotEng   =     37088.7037 E_bond   =     14237.2608 E_angle  =     16643.4019 
E_dihed  =      9839.5624 E_impro  =        58.4437 E_vdwl   =    -16228.8609 
E_coul   =     54142.3680 E_long   =    -41603.4721 E_tail   =         0.0000 
Enthalpy =     75016.3823 Temp     =       300.6068 Press    =      -355.5134 
Pxx      =      -423.5120 Pxy      =        51.2298 Pxz      =      -540.2526 
Pyy      =       -83.6823 Pyz      =        98.4631 Pzz      =      -559.3460 
Volume   =    471364.6779 Lx       =        55.2485 Ly       =        55.2485 
Lz       =       154.4243 Density  =         1.0007 f_2      =       336.7314 
c_lFlux[3] =         9.9094 c_rFlux[3] =       -12.6638 v_Jztime =         0.0552 
---------------- Step    30000 ----- CPU =    461.5299 (sec) ----------------
Time     =     90000.0000 TotEng   =     77463.5440 KinEng   =     40303.5658 
PotEng   =     37159.9782 E_bond   =     14321.2508 E_angle  =     16629.8119 
E_dihed  =      9940.5540 E_impro  =        59.7345 E_vdwl   =    -16284.7556 
E_coul   =     54106.5936 E_long   =    -41613.2110 E_tail   =         0.0000 
Enthalpy =     73893.2113 Temp     =       300.1001 Press    =      -519.3687 
Pxx      =      -578.8049 Pxy      =      -278.3005 Pxz      =      -388.0870 
Pyy      =       -67.8639 Pyz      =       122.4576 Pzz      =      -911.4372 
Volume   =    471364.6779 Lx       =        55.2485 Ly       =        55.2485 
Lz       =       154.4243 Density  =         1.0007 f_2      =       530.4371 
c_lFlux[3] =        20.9568 c_rFlux[3] =         2.0972 v_Jztime =         0.0869 
---------------- Step    40000 ----- CPU =    616.1933 (sec) ----------------
Time     =    120000.0000 TotEng   =     77462.6749 KinEng   =     40279.5615 
PotEng   =     37183.1134 E_bond   =     14139.2208 E_angle  =     16693.8170 
E_dihed  =      9932.3147 E_impro  =        60.0935 E_vdwl   =    -16139.7857 
E_coul   =     54120.3718 E_long   =    -41622.9189 E_tail   =         0.0000 
Enthalpy =     77798.0422 Temp     =       299.9214 Press    =        48.7852 
Pxx      =       -29.1090 Pxy      =       137.5413 Pxz      =      -286.8735 
Pyy      =      -212.8327 Pyz      =      -117.5705 Pzz      =       388.2972 
Volume   =    471364.6779 Lx       =        55.2485 Ly       =        55.2485 
Lz       =       154.4243 Density  =         1.0007 f_2      =       702.8283 
c_lFlux[3] =        -6.5672 c_rFlux[3] =       -16.8767 v_Jztime =         0.1151 
---------------- Step    50000 ----- CPU =    769.9722 (sec) ----------------
Time     =    150000.0000 TotEng   =     77461.2907 KinEng   =     40401.2781 
PotEng   =     37060.0126 E_bond   =     14222.8255 E_angle  =     16602.7735 
E_dihed  =      9958.5182 E_impro  =        60.0620 E_vdwl   =    -16254.0140 
E_coul   =     54089.2096 E_long   =    -41619.3622 E_tail   =         0.0000 
Enthalpy =     77207.5887 Temp     =       300.8277 Press    =       -36.9055 
Pxx      =      -181.2921 Pxy      =      -154.9741 Pxz      =        36.6251 
Pyy      =        76.0435 Pyz      =      -235.9130 Pzz      =        -5.4680 
Volume   =    471364.6779 Lx       =        55.2485 Ly       =        55.2485 
Lz       =       154.4243 Density  =         1.0007 f_2      =       887.6698 
c_lFlux[3] =        21.4820 c_rFlux[3] =       -26.8013 v_Jztime =         0.1454 
---------------- Step    60000 ----- CPU =    924.8806 (sec) ----------------
Time     =    180000.0000 TotEng   =     77460.9398 KinEng   =     40294.2584 
PotEng   =     37166.6814 E_bond   =     14277.1759 E_angle  =     16637.4641 
E_dihed  =      9915.8995 E_impro  =        59.5220 E_vdwl   =    -16213.6053 
E_coul   =     54106.7377 E_long   =    -41616.5125 E_tail   =         0.0000 
Enthalpy =     75621.4918 Temp     =       300.0308 Press    =      -267.5806 
Pxx      =      -479.1665 Pxy      =       -29.1314 Pxz      =       292.8020 
Pyy      =       311.9506 Pyz      =       289.2303 Pzz      =      -635.5259 
Volume   =    471364.6779 Lx       =        55.2485 Ly       =        55.2485 
Lz       =       154.4243 Density  =         1.0007 f_2      =      1082.4917 
c_lFlux[3] =       -11.8774 c_rFlux[3] =       -18.4016 v_Jztime =         0.1773 
---------------- Step    70000 ----- CPU =   1079.0281 (sec) ----------------
Time     =    210000.0000 TotEng   =     77461.5124 KinEng   =     40346.7711 
PotEng   =     37114.7413 E_bond   =     14166.5434 E_angle  =     16720.5483 
E_dihed  =      9931.5077 E_impro  =        59.6798 E_vdwl   =    -16226.8934 
E_coul   =     54088.0215 E_long   =    -41624.6660 E_tail   =         0.0000 
Enthalpy =     75724.5099 Temp     =       300.4218 Press    =      -252.6781 
Pxx      =      -101.7752 Pxy      =      -782.0445 Pxz      =       164.3493 
Pyy      =      -665.9479 Pyz      =       -63.6690 Pzz      =         9.6889 
Volume   =    471364.6779 Lx       =        55.2485 Ly       =        55.2485 
Lz       =       154.4243 Density  =         1.0007 f_2      =      1280.5560 
c_lFlux[3] =         8.1326 c_rFlux[3] =        11.1750 v_Jztime =         0.2098 
---------------- Step    80000 ----- CPU =   1233.9758 (sec) ----------------
Time     =    240000.0000 TotEng   =     77463.1694 KinEng   =     40289.0227 
PotEng   =     37174.1467 E_bond   =     14310.1707 E_angle  =     16628.3111 
E_dihed  =      9916.9117 E_impro  =        60.0217 E_vdwl   =    -16195.3033 
E_coul   =     54077.4820 E_long   =    -41623.4472 E_tail   =         0.0000 
Enthalpy =     76358.3864 Temp     =       299.9918 Press    =      -160.7104 
Pxx      =      -229.0424 Pxy      =       375.1399 Pxz      =      -359.5928 
Pyy      =      -215.7929 Pyz      =      -299.8479 Pzz      =       -37.2959 
Volume   =    471364.6779 Lx       =        55.2485 Ly       =        55.2485 
Lz       =       154.4243 Density  =         1.0007 f_2      =      1463.4559 
c_lFlux[3] =        -0.2171 c_rFlux[3] =         7.3448 v_Jztime =         0.2397 
---------------- Step    90000 ----- CPU =   1388.5947 (sec) ----------------
Time     =    270000.0000 TotEng   =     77459.2988 KinEng   =     40402.7310 
PotEng   =     37056.5678 E_bond   =     14112.1186 E_angle  =     16723.2646 
E_dihed  =      9914.8179 E_impro  =        59.4620 E_vdwl   =    -16211.3810 
E_coul   =     54076.6666 E_long   =    -41618.3808 E_tail   =         0.0000 
Enthalpy =     78995.6040 Temp     =       300.8385 Press    =       223.4830 
Pxx      =        30.3057 Pxy      =        29.9608 Pxz      =      -310.5668 
Pyy      =       475.8932 Pyz      =        70.5411 Pzz      =       164.2502 
Volume   =    471364.6779 Lx       =        55.2485 Ly       =        55.2485 
Lz       =       154.4243 Density  =         1.0007 f_2      =      1633.5818 
c_lFlux[3] =        15.3737 c_rFlux[3] =         6.8859 v_Jztime =         0.2676 
---------------- Step   100000 ----- CPU =   1542.3856 (sec) ----------------
Time     =    300000.0000 TotEng   =     77460.6126 KinEng   =     40399.3226 
PotEng   =     37061.2900 E_bond   =     14028.9159 E_angle  =     16731.0581 
E_dihed  =      9970.2185 E_impro  =        59.6564 E_vdwl   =    -16198.4062 
E_coul   =     54090.3207 E_long   =    -41620.4734 E_tail   =         0.0000 
Enthalpy =     79216.6317 Temp     =       300.8131 Press    =       255.4443 
Pxx      =       567.4346 Pxy      =       150.8965 Pxz      =      -681.8689 
Pyy      =       669.7134 Pyz      =      -287.4338 Pzz      =      -470.8149 
Volume   =    471364.6779 Lx       =        55.2485 Ly       =        55.2485 
Lz       =       154.4243 Density  =         1.0007 f_2      =      1813.6840 
c_lFlux[3] =         4.5152 c_rFlux[3] =         1.8756 v_Jztime =         0.2971 
---------------- Step   110000 ----- CPU =   1697.6775 (sec) ----------------
Time     =    330000.0000 TotEng   =     77462.3051 KinEng   =     40203.3874 
PotEng   =     37258.9177 E_bond   =     14227.2434 E_angle  =     16788.8009 
E_dihed  =      9910.4453 E_impro  =        58.1097 E_vdwl   =    -16162.7061 
E_coul   =     54057.4997 E_long   =    -41620.4752 E_tail   =         0.0000 
Enthalpy =     74895.0397 Temp     =       299.3542 Press    =      -373.4546 
Pxx      =        94.8528 Pxy      =      -219.1314 Pxz      =       123.2998 
Pyy      =      -911.3155 Pyz      =      -277.6704 Pzz      =      -303.9012 
Volume   =    471364.6779 Lx       =        55.2485 Ly       =        55.2485 
Lz       =       154.4243 Density  =         1.0007 f_2      =      2006.0754 
c_lFlux[3] =        13.8583 c_rFlux[3] =        -5.3858 v_Jztime =         0.3286 
---------------- Step   120000 ----- CPU =   1851.3698 (sec) ----------------
Time     =    360000.0000 TotEng   =     77460.5802 KinEng   =     40431.3859 
PotEng   =     37029.1943 E_bond   =     14131.6964 E_angle  =     16764.8860 
E_dihed  =      9907.7437 E_impro  =        59.7707 E_vdwl   =    -16298.9701 
E_coul   =     54082.7275 E_long   =    -41618.6600 E_tail   =         0.0000 
Enthalpy =     75333.9042 Temp     =       301.0519 Press    =      -309.3630 
Pxx      =        39.3934 Pxy      =        81.9803 Pxz      =       187.7107 
Pyy      =      -138.3071 Pyz      =       -50.9439 Pzz      =      -829.1755 
Volume   =    471364.6779 Lx       =        55.2485 Ly       =        55.2485 
Lz       =       154.4243 Density  =         1.0007 f_2      =      2161.2793 
c_lFlux[3] =        -5.9640 c_rFlux[3] =        -8.7339 v_Jztime =         0.3540 
---------------- Step   130000 ----- CPU =   2005.8146 (sec) ----------------
Time     =    390000.0000 TotEng   =     77460.7472 KinEng   =     40447.1033 
PotEng   =     37013.6439 E_bond   =     14157.7138 E_angle  =     16530.0293 
E_dihed  =     10017.2506 E_impro  =        59.4254 E_vdwl   =    -16246.8516 
E_coul   =     54108.8636 E_long   =    -41612.7872 E_tail   =         0.0000 
Enthalpy =     74445.0488 Temp     =       301.1689 Press    =      -438.6872 
Pxx      =      -120.2006 Pxy      =      -261.6469 Pxz      =      -450.7325 
Pyy      =      -837.6396 Pyz      =       -24.0299 Pzz      =      -358.2215 
Volume   =    471364.6779 Lx       =        55.2485 Ly       =        55.2485 
Lz       =       154.4243 Density  =         1.0007 f_2      =      2315.0978 
c_lFlux[3] =        11.3732 c_rFlux[3] =         1.0516 v_Jztime =         0.3792 
---------------- Step   140000 ----- CPU =   2160.1735 (sec) ----------------
Time     =    420000.0000 TotEng   =     77462.1117 KinEng   =     40316.3315 
PotEng   =     37145.7802 E_bond   =     14231.0947 E_angle  =     16736.4497 
E_dihed  =      9865.9920 E_impro  =        59.2114 E_vdwl   =    -16226.5954 
E_coul   =     54109.6718 E_long   =    -41630.0441 E_tail   =         0.0000 
Enthalpy =     74349.8855 Temp     =       300.1952 Press    =      -452.7289 
Pxx      =      -301.7007 Pxy      =      -156.1672 Pxz      =        13.8507 
Pyy      =      -212.9289 Pyz      =        37.0182 Pzz      =      -843.5572 
Volume   =    471364.6779 Lx       =        55.2485 Ly       =        55.2485 
Lz       =       154.4243 Density  =         1.0007 f_2      =      2475.6188 
c_lFlux[3] =         9.5864 c_rFlux[3] =       -13.0907 v_Jztime =         0.4055 
---------------- Step   150000 ----- CPU =   2315.8080 (sec) ----------------
Time     =    450000.0000 TotEng   =     77461.1195 KinEng   =     40486.4760 
PotEng   =     36974.6435 E_bond   =     14064.0459 E_angle  =     16574.6570 
E_dihed  =     10013.6598 E_impro  =        60.6129 E_vdwl   =    -16205.9964 
E_coul   =     54095.2001 E_long   =    -41627.5357 E_tail   =         0.0000 
Enthalpy =     76461.0553 Temp     =       301.4621 Press    =      -145.4772 
Pxx      =      -283.9429 Pxy      =       283.4942 Pxz      =       818.3717 
Pyy      =       512.3895 Pyz      =       245.8006 Pzz      =      -664.8783 
Volume   =    471364.6779 Lx       =        55.2485 Ly       =        55.2485 
Lz       =       154.4243 Density  =         1.0007 f_2      =      2637.9934 
c_lFlux[3] =         2.0245 c_rFlux[3] =        22.2474 v_Jztime =         0.4321 
---------------- Step   160000 ----- CPU =   2471.8950 (sec) ----------------
Time     =    480000.0000 TotEng   =     77461.9473 KinEng   =     40317.9031 
PotEng   =     37144.0442 E_bond   =     14169.2078 E_angle  =     16725.3155 
E_dihed  =      9933.9088 E_impro  =        59.3162 E_vdwl   =    -16245.9841 
E_coul   =     54121.9973 E_long   =    -41619.7173 E_tail   =         0.0000 
Enthalpy =     78915.0172 Temp     =       300.2069 Press    =       211.3750 
Pxx      =       361.9591 Pxy      =      -119.4985 Pxz      =       162.5858 
Pyy      =       149.3876 Pyz      =       -59.1023 Pzz      =       122.7782 
Volume   =    471364.6779 Lx       =        55.2485 Ly       =        55.2485 
Lz       =       154.4243 Density  =         1.0007 f_2      =      2817.1100 
c_lFlux[3] =        -2.9619 c_rFlux[3] =       -11.1776 v_Jztime =         0.4615 
---------------- Step   170000 ----- CPU =   2626.2818 (sec) ----------------
Time     =    510000.0000 TotEng   =     77461.8476 KinEng   =     40341.9554 
PotEng   =     37119.8922 E_bond   =     14198.5664 E_angle  =     16683.1189 
E_dihed  =      9937.9000 E_impro  =        59.3258 E_vdwl   =    -16210.3453 
E_coul   =     54077.2148 E_long   =    -41625.8883 E_tail   =         0.0000 
Enthalpy =     78023.9925 Temp     =       300.3860 Press    =        81.7740 
Pxx      =       576.1455 Pxy      =       275.7908 Pxz      =       203.6665 
Pyy      =       184.8319 Pyz      =       223.9415 Pzz      =      -515.6553 
Volume   =    471364.6779 Lx       =        55.2485 Ly       =        55.2485 
Lz       =       154.4243 Density  =         1.0007 f_2      =      2954.1792 
c_lFlux[3] =        12.6185 c_rFlux[3] =        -4.4207 v_Jztime =         0.4839 
---------------- Step   180000 ----- CPU =   2782.9101 (sec) ----------------
Time     =    540000.0000 TotEng   =     77462.6330 KinEng   =     40248.6326 
PotEng   =     37214.0004 E_bond   =     14294.1350 E_angle  =     16657.4902 
E_dihed  =      9917.2960 E_impro  =        59.7955 E_vdwl   =    -16168.9247 
E_coul   =     54071.5225 E_long   =    -41617.3140 E_tail   =         0.0000 
Enthalpy =     73346.3408 Temp     =       299.6911 Press    =      -598.7883 
Pxx      =      -593.4840 Pxy      =        -9.1276 Pxz      =       126.4666 
Pyy      =      -430.4356 Pyz      =       378.2993 Pzz      =      -772.4452 
Volume   =    471364.6779 Lx       =        55.2485 Ly       =        55.2485 
Lz       =       154.4243 Density  =         1.0007 f_2      =      3107.9547 
c_lFlux[3] =         0.0990 c_rFlux[3] =         7.9785 v_Jztime =         0.5091 
---------------- Step   190000 ----- CPU =   2938.0327 (sec) ----------------
Time     =    570000.0000 TotEng   =     77460.3806 KinEng   =     40348.7177 
PotEng   =     37111.6629 E_bond   =     14164.9632 E_angle  =     16626.9338 
E_dihed  =     10038.2988 E_impro  =        59.5461 E_vdwl   =    -16245.8919 
E_coul   =     54094.9109 E_long   =    -41627.0979 E_tail   =         0.0000 
Enthalpy =     78845.5210 Temp     =       300.4363 Press    =       201.4934 
Pxx      =       348.8148 Pxy      =      -198.7145 Pxz      =       264.5805 
Pyy      =       -32.9896 Pyz      =       433.8981 Pzz      =       288.6551 
Volume   =    471364.6779 Lx       =        55.2485 Ly       =        55.2485 
Lz       =       154.4243 Density  =         1.0007 f_2      =      3282.9784 
c_lFlux[3] =        10.1310 c_rFlux[3] =        -2.3805 v_Jztime =         0.5378 
---------------- Step   200000 ----- CPU =   3093.5410 (sec) ----------------
Time     =    600000.0000 TotEng   =     77462.7944 KinEng   =     40310.0879 
PotEng   =     37152.7065 E_bond   =     14129.7515 E_angle  =     16791.8414 
E_dihed  =      9926.2565 E_impro  =        58.9842 E_vdwl   =    -16197.0348 
E_coul   =     54075.4982 E_long   =    -41632.5905 E_tail   =         0.0000 
Enthalpy =     77937.2392 Temp     =       300.1487 Press    =        69.0165 
Pxx      =        41.2912 Pxy      =       184.6178 Pxz      =       550.8983 
Pyy      =       377.6055 Pyz      =        56.2912 Pzz      =      -211.8472 
Volume   =    471364.6779 Lx       =        55.2485 Ly       =        55.2485 
Lz       =       154.4243 Density  =         1.0007 f_2      =      3454.8442 
c_lFlux[3] =         4.6879 c_rFlux[3] =         6.9936 v_Jztime =         0.5659 
---------------- Step   210000 ----- CPU =   3248.9649 (sec) ----------------
Time     =    630000.0000 TotEng   =     77462.0334 KinEng   =     40248.4141 
PotEng   =     37213.6193 E_bond   =     14244.5622 E_angle  =     16770.5047 
E_dihed  =      9837.6896 E_impro  =        58.2151 E_vdwl   =    -16172.8131 
E_coul   =     54095.2969 E_long   =    -41619.8361 E_tail   =         0.0000 
Enthalpy =     78599.6729 Temp     =       299.6895 Press    =       165.4900 
Pxx      =       132.3067 Pxy      =       -37.3740 Pxz      =        22.9933 
Pyy      =      -460.0008 Pyz      =      -135.0856 Pzz      =       824.1641 
Volume   =    471364.6779 Lx       =        55.2485 Ly       =        55.2485 
Lz       =       154.4243 Density  =         1.0007 f_2      =      3634.2469 
c_lFlux[3] =         5.9232 c_rFlux[3] =       -16.0269 v_Jztime =         0.5953 
---------------- Step   220000 ----- CPU =   3402.7526 (sec) ----------------
Time     =    660000.0000 TotEng   =     77462.0653 KinEng   =     40374.7638 
PotEng   =     37087.3015 E_bond   =     14090.4579 E_angle  =     16781.3212 
E_dihed  =      9878.5462 E_impro  =        58.9939 E_vdwl   =    -16190.4462 
E_coul   =     54095.9435 E_long   =    -41627.5149 E_tail   =         0.0000 
Enthalpy =     77503.4933 Temp     =       300.6303 Press    =         6.0264 
Pxx      =       -18.2938 Pxy      =      -177.6596 Pxz      =       179.1094 
Pyy      =      -511.2735 Pyz      =      -104.0844 Pzz      =       547.6467 
Volume   =    471364.6779 Lx       =        55.2485 Ly       =        55.2485 
Lz       =       154.4243 Density  =         1.0007 f_2      =      3836.7909 
c_lFlux[3] =        27.3738 c_rFlux[3] =       -19.8854 v_Jztime =         0.6285 
---------------- Step   230000 ----- CPU =   3558.2485 (sec) ----------------
Time     =    690000.0000 TotEng   =     77462.1253 KinEng   =     40282.3197 
PotEng   =     37179.8056 E_bond   =     14143.9053 E_angle  =     16715.4251 
E_dihed  =      9945.6299 E_impro  =        59.2042 E_vdwl   =    -16156.6690 
E_coul   =     54094.6290 E_long   =    -41622.3189 E_tail   =         0.0000 
Enthalpy =     79064.9673 Temp     =       299.9419 Press    =       233.1620 
Pxx      =       303.5512 Pxy      =       162.3447 Pxz      =        18.3741 
Pyy      =       135.4992 Pyz      =      -210.7665 Pzz      =       260.4356 
Volume   =    471364.6779 Lx       =        55.2485 Ly       =        55.2485 
Lz       =       154.4243 Density  =         1.0007 f_2      =      4058.7283 
c_lFlux[3] =       -26.5154 c_rFlux[3] =         2.9881 v_Jztime =         0.6648 
---------------- Step   240000 ----- CPU =   3711.9726 (sec) ----------------
Time     =    720000.0000 TotEng   =     77459.7287 KinEng   =     40445.2995 
PotEng   =     37014.4292 E_bond   =     14132.9314 E_angle  =     16722.6568 
E_dihed  =      9925.7715 E_impro  =        58.5955 E_vdwl   =    -16307.1321 
E_coul   =     54106.8542 E_long   =    -41625.2482 E_tail   =         0.0000 
Enthalpy =     77317.5878 Temp     =       301.1555 Press    =       -20.6769 
Pxx      =       185.7361 Pxy      =       150.8964 Pxz      =       289.0960 
Pyy      =       160.1558 Pyz      =      -301.6492 Pzz      =      -407.9227 
Volume   =    471364.6779 Lx       =        55.2485 Ly       =        55.2485 
Lz       =       154.4243 Density  =         1.0007 f_2      =      4224.4634 
c_lFlux[3] =         5.5653 c_rFlux[3] =        -9.4526 v_Jztime =         0.6920 
---------------- Step   250000 ----- CPU =   3867.3148 (sec) ----------------
Time     =    750000.0000 TotEng   =     77464.7824 KinEng   =     40194.0177 
PotEng   =     37270.7647 E_bond   =     14107.7246 E_angle  =     16755.3472 
E_dihed  =      9972.3246 E_impro  =        60.2473 E_vdwl   =    -16117.6122 
E_coul   =     54109.1859 E_long   =    -41616.4528 E_tail   =         0.0000 
Enthalpy =     80091.1599 Temp     =       299.2844 Press    =       382.0535 
Pxx      =       -69.6730 Pxy      =       -16.4978 Pxz      =        69.3298 
Pyy      =       399.8198 Pyz      =      -191.0269 Pzz      =       816.0138 
Volume   =    471364.6779 Lx       =        55.2485 Ly       =        55.2485 
Lz       =       154.4243 Density  =         1.0007 f_2      =      4421.7791 
c_lFlux[3] =         6.7614 c_rFlux[3] =       -35.6546 v_Jztime =         0.7243 
---------------- Step   260000 ----- CPU =   4021.4267 (sec) ----------------
Time     =    780000.0000 TotEng   =     77464.7025 KinEng   =     40163.5911 
PotEng   =     37301.1113 E_bond   =     14236.5507 E_angle  =     16780.0257 
E_dihed  =      9941.9335 E_impro  =        59.8512 E_vdwl   =    -16199.4085 
E_coul   =     54102.1434 E_long   =    -41619.9848 E_tail   =         0.0000 
Enthalpy =     79412.2212 Temp     =       299.0579 Press    =       283.3014 
Pxx      =      -123.3631 Pxy      =       211.9933 Pxz      =        37.1164 
Pyy      =       388.7904 Pyz      =      -582.2215 Pzz      =       584.4769 
Volume   =    471364.6779 Lx       =        55.2485 Ly       =        55.2485 
Lz       =       154.4243 Density  =         1.0007 f_2      =      4616.8459 
c_lFlux[3] =         7.8996 c_rFlux[3] =        19.4976 v_Jztime =         0.7563 
---------------- Step   270000 ----- CPU =   4176.7830 (sec) ----------------
Time     =    810000.0000 TotEng   =     77459.2952 KinEng   =     40535.1486 
PotEng   =     36924.1466 E_bond   =     14023.3424 E_angle  =     16625.8138 
E_dihed  =      9915.4643 E_impro  =        57.9647 E_vdwl   =    -16197.3149 
E_coul   =     54109.8758 E_long   =    -41610.9995 E_tail   =         0.0000 
Enthalpy =     76206.6739 Temp     =       301.8245 Press    =      -182.2161 
Pxx      =      -503.0179 Pxy      =      -355.7118 Pxz      =       -38.4324 
Pyy      =        27.2682 Pyz      =      -290.2812 Pzz      =       -70.8987 
Volume   =    471364.6779 Lx       =        55.2485 Ly       =        55.2485 
Lz       =       154.4243 Density  =         1.0007 f_2      =      4765.4756 
c_lFlux[3] =        13.5533 c_rFlux[3] =         7.4126 v_Jztime =         0.7806 
---------------- Step   280000 ----- CPU =   4332.3103 (sec) ----------------
Time     =    840000.0000 TotEng   =     77464.0300 KinEng   =     40319.4946 
PotEng   =     37144.5354 E_bond   =     14306.2946 E_angle  =     16594.8974 
E_dihed  =      9927.0140 E_impro  =        59.5190 E_vdwl   =    -16226.5608 
E_coul   =     54110.1589 E_long   =    -41626.7877 E_tail   =         0.0000 
Enthalpy =     73172.6149 Temp     =       300.2187 Press    =      -624.2630 
Pxx      =      -496.0171 Pxy      =       275.1805 Pxz      =      -269.8851 
Pyy      =      -103.1393 Pyz      =       233.8559 Pzz      =     -1273.6326 
Volume   =    471364.6779 Lx       =        55.2485 Ly       =        55.2485 
Lz       =       154.4243 Density  =         1.0007 f_2      =      4950.8558 
c_lFlux[3] =        15.3648 c_rFlux[3] =       -19.3880 v_Jztime =         0.8110 
---------------- Step   290000 ----- CPU =   4487.0347 (sec) ----------------
Time     =    870000.0000 TotEng   =     77461.2854 KinEng   =     40475.1938 
PotEng   =     36986.0916 E_bond   =     14078.1095 E_angle  =     16754.5477 
E_dihed  =      9929.4657 E_impro  =        58.9569 E_vdwl   =    -16329.5146 
E_coul   =     54103.8811 E_long   =    -41609.3546 E_tail   =         0.0000 
Enthalpy =     75567.3013 Temp     =       301.3781 Press    =      -275.5138 
Pxx      =      -325.7520 Pxy      =         8.4071 Pxz      =      -338.8517 
Pyy      =      -461.3306 Pyz      =       -89.6413 Pzz      =       -39.4590 
Volume   =    471364.6779 Lx       =        55.2485 Ly       =        55.2485 
Lz       =       154.4243 Density  =         1.0007 f_2      =      5116.7473 
c_lFlux[3] =        23.0666 c_rFlux[3] =        20.5863 v_Jztime =         0.8382 
---------------- Step   300000 ----- CPU =   4642.4458 (sec) ----------------
Time     =    900000.0000 TotEng   =     77465.0862 KinEng   =     40135.5586 
PotEng   =     37329.5276 E_bond   =     14212.3375 E_angle  =     16747.4707 
E_dihed  =      9991.0108 E_impro  =        59.2926 E_vdwl   =    -16149.2392 
E_coul   =     54084.7734 E_long   =    -41616.1183 E_tail   =         0.0000 
Enthalpy =     78542.7049 Temp     =       298.8491 Press    =       156.7589 
Pxx      =       501.9115 Pxy      =       437.3366 Pxz      =      -335.1980 
Pyy      =        18.7871 Pyz      =      -311.6575 Pzz      =       -50.4219 
Volume   =    471364.6779 Lx       =        55.2485 Ly       =        55.2485 
Lz       =       154.4243 Density  =         1.0007 f_2      =      5268.4095 
c_lFlux[3] =        10.7928 c_rFlux[3] =        -7.8997 v_Jztime =         0.8630 
---------------- Step   310000 ----- CPU =   4796.3651 (sec) ----------------
Time     =    930000.0000 TotEng   =     77465.0746 KinEng   =     40225.0128 
PotEng   =     37240.0618 E_bond   =     14269.6544 E_angle  =     16669.9715 
E_dihed  =      9929.5376 E_impro  =        58.8498 E_vdwl   =    -16163.3495 
E_coul   =     54092.3148 E_long   =    -41616.9168 E_tail   =         0.0000 
Enthalpy =     76422.3748 Temp     =       299.5152 Press    =      -151.6793 
Pxx      =       157.9662 Pxy      =      -195.5086 Pxz      =       362.5312 
Pyy      =      -153.8633 Pyz      =      -184.9134 Pzz      =      -459.1408 
Volume   =    471364.6779 Lx       =        55.2485 Ly       =        55.2485 
Lz       =       154.4243 Density  =         1.0007 f_2      =      5464.4797 
c_lFlux[3] =       -28.3224 c_rFlux[3] =        10.4258 v_Jztime =         0.8951 
---------------- Step   320000 ----- CPU =   4951.4578 (sec) ----------------
Time     =    960000.0000 TotEng   =     77464.4624 KinEng   =     40350.7810 
PotEng   =     37113.6814 E_bond   =     14056.3011 E_angle  =     16640.2164 
E_dihed  =     10054.3089 E_impro  =        59.0315 E_vdwl   =    -16194.4770 
E_coul   =     54115.9516 E_long   =    -41617.6511 E_tail   =         0.0000 
Enthalpy =     77711.1499 Temp     =       300.4517 Press    =        35.8851 
Pxx      =        60.3137 Pxy      =      -134.5724 Pxz      =       297.2221 
Pyy      =       113.1260 Pyz      =      -538.6216 Pzz      =       -65.7843 
Volume   =    471364.6779 Lx       =        55.2485 Ly       =        55.2485 
Lz       =       154.4243 Density  =         1.0007 f_2      =      5643.7433 
c_lFlux[3] =        -6.2304 c_rFlux[3] =        -7.1700 v_Jztime =         0.9245 
---------------- Step   330000 ----- CPU =   5106.8574 (sec) ----------------
Time     =    990000.0000 TotEng   =     77463.2151 KinEng   =     40381.2528 
PotEng   =     37081.9624 E_bond   =     14140.5633 E_angle  =     16671.3508 
E_dihed  =      9912.8099 E_impro  =        59.1865 E_vdwl   =    -16230.9079 
E_coul   =     54129.5335 E_long   =    -41600.5738 E_tail   =         0.0000 
Enthalpy =     79768.8279 Temp     =       300.6786 Press    =       335.3926 
Pxx      =       -94.6466 Pxy      =       117.7433 Pxz      =      -174.3468 
Pyy      =       288.0420 Pyz      =       298.0504 Pzz      =       812.7823 
Volume   =    471364.6779 Lx       =        55.2485 Ly       =        55.2485 
Lz       =       154.4243 Density  =         1.0007 f_2      =      5797.6336 
c_lFlux[3] =        -4.2636 c_rFlux[3] =        17.3502 v_Jztime =         0.9497 
---------------- Step   340000 ----- CPU =   5260.8063 (sec) ----------------
Time     =   1020000.0000 TotEng   =     77464.4927 KinEng   =     40174.1840 
PotEng   =     37290.3087 E_bond   =     14262.3228 E_angle  =     16701.2241 
E_dihed  =      9918.4232 E_impro  =        58.8627 E_vdwl   =    -16117.5419 
E_coul   =     54087.5049 E_long   =    -41620.4870 E_tail   =         0.0000 
Enthalpy =     79307.7377 Temp     =       299.1367 Press    =       268.1329 
Pxx      =      -176.7210 Pxy      =      -478.7228 Pxz      =      -161.8593 
Pyy      =      -347.3063 Pyz      =       514.2020 Pzz      =      1328.4260 
Volume   =    471364.6779 Lx       =        55.2485 Ly       =        55.2485 
Lz       =       154.4243 Density  =         1.0007 f_2      =      5987.3802 
c_lFlux[3] =        21.7825 c_rFlux[3] =        -0.3007 v_Jztime =         0.9808 
---------------- Step   350000 ----- CPU =   5415.3346 (sec) ----------------
Time     =   1050000.0000 TotEng   =     77462.1512 KinEng   =     40219.7877 
PotEng   =     37242.3634 E_bond   =     14268.2526 E_angle  =     16698.4617 
E_dihed  =      9960.7946 E_impro  =        59.4701 E_vdwl   =    -16246.5695 
E_coul   =     54116.6688 E_long   =    -41614.7149 E_tail   =         0.0000 
Enthalpy =     73968.5208 Temp     =       299.4763 Press    =      -508.2110 
Pxx      =      -451.4589 Pxy      =      -285.9932 Pxz      =        -7.8212 
Pyy      =      -633.8729 Pyz      =      -159.7931 Pzz      =      -439.3011 
Volume   =    471364.6779 Lx       =        55.2485 Ly       =        55.2485 
Lz       =       154.4243 Density  =         1.0007 f_2      =      6168.1793 
c_lFlux[3] =         8.8767 c_rFlux[3] =       -12.9454 v_Jztime =         1.0104 
---------------- Step   360000 ----- CPU =   5569.7647 (sec) ----------------
Time     =   1080000.0000 TotEng   =     77461.2120 KinEng   =     40490.5067 
PotEng   =     36970.7053 E_bond   =     14322.3914 E_angle  =     16438.6127 
E_dihed  =      9835.1202 E_impro  =        59.8205 E_vdwl   =    -16178.2680 
E_coul   =     54100.0853 E_long   =    -41607.0569 E_tail   =         0.0000 
Enthalpy =     76226.3994 Temp     =       301.4921 Press    =      -179.6256 
Pxx      =      -507.3326 Pxy      =       -44.9010 Pxz      =        39.9344 
Pyy      =        87.1616 Pyz      =       470.6104 Pzz      =      -118.7056 
Volume   =    471364.6779 Lx       =        55.2485 Ly       =        55.2485 
Lz       =       154.4243 Density  =         1.0007 f_2      =      6346.8158 
c_lFlux[3] =         2.3343 c_rFlux[3] =        -7.6982 v_Jztime =         1.0396 
---------------- Step   370000 ----- CPU =   5725.1468 (sec) ----------------
Time     =   1110000.0000 TotEng   =     77463.2877 KinEng   =     40140.0075 
PotEng   =     37323.2801 E_bond   =     14136.8687 E_angle  =     16699.8171 
E_dihed  =     10103.5578 E_impro  =        60.3955 E_vdwl   =    -16189.4368 
E_coul   =     54118.5389 E_long   =    -41606.4611 E_tail   =         0.0000 
Enthalpy =     74663.6485 Temp     =       298.8823 Press    =      -407.2575 
Pxx      =      -360.2469 Pxy      =       -15.2745 Pxz      =       226.1309 
Pyy      =      -602.4539 Pyz      =         1.1661 Pzz      =      -259.0719 
Volume   =    471364.6779 Lx       =        55.2485 Ly       =        55.2485 
Lz       =       154.4243 Density  =         1.0007 f_2      =      6550.7244 
c_lFlux[3] =        12.3750 c_rFlux[3] =        -4.5239 v_Jztime =         1.0730 
---------------- Step   380000 ----- CPU =   5879.0259 (sec) ----------------
Time     =   1140000.0000 TotEng   =     77461.5531 KinEng   =     40326.6023 
PotEng   =     37134.9508 E_bond   =     14225.0610 E_angle  =     16659.4267 
E_dihed  =      9818.2737 E_impro  =        59.7638 E_vdwl   =    -16110.5046 
E_coul   =     54084.7402 E_long   =    -41601.8099 E_tail   =         0.0000 
Enthalpy =     80281.7930 Temp     =       300.2717 Press    =       410.2543 
Pxx      =       545.2019 Pxy      =      -347.0104 Pxz      =      -288.0898 
Pyy      =       -13.6205 Pyz      =       122.3841 Pzz      =       699.1815 
Volume   =    471364.6779 Lx       =        55.2485 Ly       =        55.2485 
Lz       =       154.4243 Density  =         1.0007 f_2      =      6749.7223 
c_lFlux[3] =         4.9793 c_rFlux[3] =        -8.6191 v_Jztime =         1.1056 
---------------- Step   390000 ----- CPU =   6034.6444 (sec) ----------------
Time     =   1170000.0000 TotEng   =     77463.1546 KinEng   =     40128.0300 
PotEng   =     37335.1246 E_bond   =     14112.7576 E_angle  =     16917.7328 
E_dihed  =      9931.8796 E_impro  =        59.2852 E_vdwl   =    -16177.4574 
E_coul   =     54103.1432 E_long   =    -41612.2164 E_tail   =         0.0000 
Enthalpy =     79712.1734 Temp     =       298.7931 Press    =       327.1600 
Pxx      =      -288.7333 Pxy      =       101.1712 Pxz      =       163.4889 
Pyy      =       963.8636 Pyz      =       274.6300 Pzz      =       306.3496 
Volume   =    471364.6779 Lx       =        55.2485 Ly       =        55.2485 
Lz       =       154.4243 Density  =         1.0007 f_2      =      6922.1732 
c_lFlux[3] =        -9.5834 c_rFlux[3] =        -2.2626 v_Jztime =         1.1339 
---------------- Step   400000 ----- CPU =   6189.8078 (sec) ----------------
Time     =   1200000.0000 TotEng   =     77462.7932 KinEng   =     40422.2036 
PotEng   =     37040.5896 E_bond   =     14131.6284 E_angle  =     16638.1304 
E_dihed  =      9900.5556 E_impro  =        58.8747 E_vdwl   =    -16157.4348 
E_coul   =     54077.8004 E_long   =    -41608.9652 E_tail   =         0.0000 
Enthalpy =     77600.8346 Temp     =       300.9835 Press    =        20.0806 
Pxx      =       295.1546 Pxy      =       -27.0841 Pxz      =       375.7564 
Pyy      =       262.4848 Pyz      =        79.7076 Pzz      =      -497.3977 
Volume   =    471364.6779 Lx       =        55.2485 Ly       =        55.2485 
Lz       =       154.4243 Density  =         1.0007 f_2      =      7112.2825 
c_lFlux[3] =        -4.9741 c_rFlux[3] =        -0.1641 v_Jztime =         1.1650 
---------------- Step   410000 ----- CPU =   6343.5440 (sec) ----------------
Time     =   1230000.0000 TotEng   =     77463.6338 KinEng   =     40278.5544 
PotEng   =     37185.0793 E_bond   =     14224.1022 E_angle  =     16694.5470 
E_dihed  =      9855.1173 E_impro  =        57.7417 E_vdwl   =    -16150.4373 
E_coul   =     54119.2041 E_long   =    -41615.1957 E_tail   =         0.0000 
Enthalpy =     80207.1501 Temp     =       299.9139 Press    =       399.0935 
Pxx      =       657.5427 Pxy      =       -52.4080 Pxz      =        40.6650 
Pyy      =       189.3814 Pyz      =      -326.6124 Pzz      =       350.3563 
Volume   =    471364.6779 Lx       =        55.2485 Ly       =        55.2485 
Lz       =       154.4243 Density  =         1.0007 f_2      =      7279.0786 
c_lFlux[3] =        12.7637 c_rFlux[3] =       -22.9106 v_Jztime =         1.1924 
---------------- Step   420000 ----- CPU =   6498.6364 (sec) ----------------
Time     =   1260000.0000 TotEng   =     77461.7953 KinEng   =     40343.8756 
PotEng   =     37117.9197 E_bond   =     14063.1167 E_angle  =     16681.7927 
E_dihed  =     10025.7713 E_impro  =        60.6120 E_vdwl   =    -16184.6619 
E_coul   =     54080.0332 E_long   =    -41608.7442 E_tail   =         0.0000 
Enthalpy =     78407.7277 Temp     =       300.4003 Press    =       137.6028 
Pxx      =       221.1301 Pxy      =      -167.0913 Pxz      =        75.4362 
Pyy      =        30.4032 Pyz      =      -196.3989 Pzz      =       161.2750 
Volume   =    471364.6779 Lx       =        55.2485 Ly       =        55.2485 
Lz       =       154.4243 Density  =         1.0007 f_2      =      7453.9485 
c_lFlux[3] =       -13.0751 c_rFlux[3] =        25.7895 v_Jztime =         1.2210 
---------------- Step   430000 ----- CPU =   6653.0364 (sec) ----------------
Time     =   1290000.0000 TotEng   =     77464.2886 KinEng   =     40183.8626 
PotEng   =     37280.4261 E_bond   =     14260.2679 E_angle  =     16758.8077 
E_dihed  =      9902.8898 E_impro  =        58.8476 E_vdwl   =    -16211.3410 
E_coul   =     54119.1113 E_long   =    -41608.1572 E_tail   =         0.0000 
Enthalpy =     75524.1950 Temp     =       299.2088 Press    =      -282.2213 
Pxx      =      -603.7937 Pxy      =      -117.0685 Pxz      =       239.7095 
Pyy      =      -234.2603 Pyz      =        70.3856 Pzz      =        -8.6098 
Volume   =    471364.6779 Lx       =        55.2485 Ly       =        55.2485 
Lz       =       154.4243 Density  =         1.0007 f_2      =      7647.8433 
c_lFlux[3] =        -2.0861 c_rFlux[3] =       -17.0853 v_Jztime =         1.2528 
---------------- Step   440000 ----- CPU =   6807.6546 (sec) ----------------
Time     =   1320000.0000 TotEng   =     77460.8023 KinEng   =     40507.6063 
PotEng   =     36953.1960 E_bond   =     14215.5430 E_angle  =     16465.3034 
E_dihed  =      9955.3134 E_impro  =        60.4210 E_vdwl   =    -16241.2621 
E_coul   =     54112.0460 E_long   =    -41614.1687 E_tail   =         0.0000 
Enthalpy =     77857.4927 Temp     =       301.6194 Press    =        57.7057 
Pxx      =         0.2128 Pxy      =       170.3345 Pxz      =      -441.3810 
Pyy      =       129.9615 Pyz      =      -516.3917 Pzz      =        42.9428 
Volume   =    471364.6779 Lx       =        55.2485 Ly       =        55.2485 
Lz       =       154.4243 Density  =         1.0007 f_2      =      7804.7202 
c_lFlux[3] =         9.0021 c_rFlux[3] =       -13.1354 v_Jztime =         1.2785 
---------------- Step   450000 ----- CPU =   6962.7872 (sec) ----------------
Time     =   1350000.0000 TotEng   =     77464.1122 KinEng   =     40193.9533 
PotEng   =     37270.1589 E_bond   =     14251.1357 E_angle  =     16754.4718 
E_dihed  =      9926.3204 E_impro  =        59.7525 E_vdwl   =    -16152.6360 
E_coul   =     54055.9389 E_long   =    -41624.8244 E_tail   =         0.0000 
Enthalpy =     74075.3044 Temp     =       299.2840 Press    =      -492.9626 
Pxx      =      -380.0538 Pxy      =      -382.9608 Pxz      =       326.4412 
Pyy      =      -345.8424 Pyz      =       -98.5535 Pzz      =      -752.9917 
Volume   =    471364.6779 Lx       =        55.2485 Ly       =        55.2485 
Lz       =       154.4243 Density  =         1.0007 f_2      =      7967.3482 
c_lFlux[3] =        -8.2836 c_rFlux[3] =        -3.6731 v_Jztime =         1.3051 
---------------- Step   460000 ----- CPU =   7117.2623 (sec) ----------------
Time     =   1380000.0000 TotEng   =     77462.8655 KinEng   =     40291.9404 
PotEng   =     37170.9251 E_bond   =     14279.2176 E_angle  =     16696.2575 
E_dihed  =      9864.9535 E_impro  =        58.2928 E_vdwl   =    -16197.7763 
E_coul   =     54090.5077 E_long   =    -41620.5277 E_tail   =         0.0000 
Enthalpy =     78426.1571 Temp     =       300.0136 Press    =       140.1280 
Pxx      =      -855.2527 Pxy      =      -144.1582 Pxz      =       243.5357 
Pyy      =       570.7801 Pyz      =       250.3999 Pzz      =       704.8566 
Volume   =    471364.6779 Lx       =        55.2485 Ly       =        55.2485 
Lz       =       154.4243 Density  =         1.0007 f_2      =      8159.4626 
c_lFlux[3] =        10.4123 c_rFlux[3] =        -6.5244 v_Jztime =         1.3366 
---------------- Step   470000 ----- CPU =   7272.4135 (sec) ----------------
Time     =   1410000.0000 TotEng   =     77461.1546 KinEng   =     40580.0484 
PotEng   =     36881.1063 E_bond   =     14039.0663 E_angle  =     16585.5251 
E_dihed  =      9921.1749 E_impro  =        58.6342 E_vdwl   =    -16164.5512 
E_coul   =     54060.3978 E_long   =    -41619.1409 E_tail   =         0.0000 
Enthalpy =     80577.2388 Temp     =       302.1588 Press    =       453.2901 
Pxx      =        54.9680 Pxy      =       -53.8072 Pxz      =       501.7594 
Pyy      =       355.9117 Pyz      =        81.8880 Pzz      =       948.9907 
Volume   =    471364.6779 Lx       =        55.2485 Ly       =        55.2485 
Lz       =       154.4243 Density  =         1.0007 f_2      =      8331.3315 
c_lFlux[3] =        -2.0327 c_rFlux[3] =        21.4640 v_Jztime =         1.3647 
---------------- Step   480000 ----- CPU =   7426.7199 (sec) ----------------
Time     =   1440000.0000 TotEng   =     77462.8750 KinEng   =     40485.4783 
PotEng   =     36977.3967 E_bond   =     14154.6636 E_angle  =     16581.9729 
E_dihed  =     10031.5895 E_impro  =        59.9284 E_vdwl   =    -16290.4425 
E_coul   =     54055.2140 E_long   =    -41615.5291 E_tail   =         0.0000 
Enthalpy =     76380.4011 Temp     =       301.4546 Press    =      -157.4652 
Pxx      =         4.0282 Pxy      =      -359.8660 Pxz      =        67.2877 
Pyy      =       -55.6899 Pyz      =       330.0047 Pzz      =      -420.7339 
Volume   =    471364.6779 Lx       =        55.2485 Ly       =        55.2485 
Lz       =       154.4243 Density  =         1.0007 f_2      =      8495.1035 
c_lFlux[3] =         3.6466 c_rFlux[3] =        22.7092 v_Jztime =         1.3915 
---------------- Step   490000 ----- CPU =   7581.8606 (sec) ----------------
Time     =   1470000.0000 TotEng   =     77466.3491 KinEng   =     40098.9126 
PotEng   =     37367.4364 E_bond   =     14277.3651 E_angle  =     16864.0803 
E_dihed  =     10046.8855 E_impro  =        60.2493 E_vdwl   =    -16297.1353 
E_coul   =     54039.8031 E_long   =    -41623.8116 E_tail   =         0.0000 
Enthalpy =     76599.8333 Temp     =       298.5763 Press    =      -126.0502 
Pxx      =      -448.8202 Pxy      =      -101.3016 Pxz      =       187.1930 
Pyy      =       234.8970 Pyz      =       -62.2078 Pzz      =      -164.2274 
Volume   =    471364.6779 Lx       =        55.2485 Ly       =        55.2485 
Lz       =       154.4243 Density  =         1.0007 f_2      =      8696.6468 
c_lFlux[3] =        -9.9983 c_rFlux[3] =        14.4699 v_Jztime =         1.4246 
---------------- Step   500000 ----- CPU =   7736.4262 (sec) ----------------
Time     =   1500000.0000 TotEng   =     77467.6378 KinEng   =     40060.5407 
PotEng   =     37407.0970 E_bond   =     14243.9926 E_angle  =     16693.5617 
E_dihed  =      9999.7552 E_impro  =        59.0571 E_vdwl   =    -16035.9881 
E_coul   =     54065.4182 E_long   =    -41618.6997 E_tail   =         0.0000 
Enthalpy =     76553.5341 Temp     =       298.2906 Press    =      -132.9727 
Pxx      =       -64.3208 Pxy      =       266.1302 Pxz      =      -340.5839 
Pyy      =      -244.8120 Pyz      =       280.5200 Pzz      =       -89.7853 
Volume   =    471364.6779 Lx       =        55.2485 Ly       =        55.2485 
Lz       =       154.4243 Density  =         1.0007 f_2      =      8895.5992 
c_lFlux[3] =        -0.8663 c_rFlux[3] =        -8.7409 v_Jztime =         1.4571 
---------------- Step   510000 ----- CPU =   7891.0649 (sec) ----------------
Time     =   1530000.0000 TotEng   =     77465.8031 KinEng   =     40431.2714 
PotEng   =     37034.5316 E_bond   =     14163.4397 E_angle  =     16667.4708 
E_dihed  =      9814.3725 E_impro  =        58.7807 E_vdwl   =    -16140.1274 
E_coul   =     54095.7744 E_long   =    -41625.1790 E_tail   =         0.0000 
Enthalpy =     81687.0414 Temp     =       301.0510 Press    =       614.0545 
Pxx      =       412.0967 Pxy      =        27.0574 Pxz      =       444.0049 
Pyy      =       545.6066 Pyz      =      -147.0922 Pzz      =       884.4603 
Volume   =    471364.6779 Lx       =        55.2485 Ly       =        55.2485 
Lz       =       154.4243 Density  =         1.0007 f_2      =      9086.1937 
c_lFlux[3] =        -1.3794 c_rFlux[3] =         3.8009 v_Jztime =         1.4884 
---------------- Step   520000 ----- CPU =   8045.7227 (sec) ----------------
Time     =   1560000.0000 TotEng   =     77463.9562 KinEng   =     40378.9144 
PotEng   =     37085.0418 E_bond   =     14257.6807 E_angle  =     16697.4629 
E_dihed  =      9923.7758 E_impro  =        58.6856 E_vdwl   =    -16284.9431 
E_coul   =     54056.0889 E_long   =    -41623.7090 E_tail   =         0.0000 
Enthalpy =     79667.6036 Temp     =       300.6612 Press    =       320.5599 
Pxx      =       -47.6668 Pxy      =      -254.2965 Pxz      =      -181.6113 
Pyy      =       763.9671 Pyz      =      -188.9887 Pzz      =       245.3794 
Volume   =    471364.6779 Lx       =        55.2485 Ly       =        55.2485 
Lz       =       154.4243 Density  =         1.0007 f_2      =      9299.0016 
c_lFlux[3] =        18.7835 c_rFlux[3] =         3.6979 v_Jztime =         1.5232 
---------------- Step   530000 ----- CPU =   8198.8181 (sec) ----------------
Time     =   1590000.0000 TotEng   =     77465.8421 KinEng   =     40163.2488 
PotEng   =     37302.5933 E_bond   =     14147.3752 E_angle  =     16732.9351 
E_dihed  =      9997.0638 E_impro  =        60.7628 E_vdwl   =    -16108.1421 
E_coul   =     54090.0825 E_long   =    -41617.4840 E_tail   =         0.0000 
Enthalpy =     75934.4488 Temp     =       299.0553 Press    =      -222.7685 
Pxx      =      -351.5354 Pxy      =        50.2776 Pxz      =      -118.8324 
Pyy      =      -188.8360 Pyz      =      -438.0154 Pzz      =      -127.9341 
Volume   =    471364.6779 Lx       =        55.2485 Ly       =        55.2485 
Lz       =       154.4243 Density  =         1.0007 f_2      =      9487.9619 
c_lFlux[3] =        -7.1421 c_rFlux[3] =         0.6809 v_Jztime =         1.5542 
---------------- Step   540000 ----- CPU =   8354.1569 (sec) ----------------
Time     =   1620000.0000 TotEng   =     77463.8615 KinEng   =     40337.1203 
PotEng   =     37126.7412 E_bond   =     14341.6148 E_angle  =     16647.9256 
E_dihed  =      9865.5366 E_impro  =        57.8970 E_vdwl   =    -16263.4531 
E_coul   =     54093.3997 E_long   =    -41616.1794 E_tail   =         0.0000 
Enthalpy =     74263.0160 Temp     =       300.3500 Press    =      -465.6202 
Pxx      =      -312.6013 Pxy      =       140.6830 Pxz      =       -97.0460 
Pyy      =      -208.0942 Pyz      =       -33.4121 Pzz      =      -876.1650 
Volume   =    471364.6779 Lx       =        55.2485 Ly       =        55.2485 
Lz       =       154.4243 Density  =         1.0007 f_2      =      9668.8647 
c_lFlux[3] =        10.8093 c_rFlux[3] =       -25.0010 v_Jztime =         1.5838 
---------------- Step   550000 ----- CPU =   8508.7269 (sec) ----------------
Time     =   1650000.0000 TotEng   =     77463.3196 KinEng   =     40357.2059 
PotEng   =     37106.1137 E_bond   =     14119.3913 E_angle  =     16653.3169 
E_dihed  =     10019.9359 E_impro  =        60.1846 E_vdwl   =    -16255.7606 
E_coul   =     54117.3849 E_long   =    -41608.3392 E_tail   =         0.0000 
Enthalpy =     79289.8097 Temp     =       300.4995 Press    =       265.6956 
Pxx      =       583.7139 Pxy      =      -215.6818 Pxz      =       237.9954 
Pyy      =      -297.9236 Pyz      =       505.7644 Pzz      =       511.2965 
Volume   =    471364.6779 Lx       =        55.2485 Ly       =        55.2485 
Lz       =       154.4243 Density  =         1.0007 f_2      =      9853.5287 
c_lFlux[3] =       -12.1593 c_rFlux[3] =        -5.8271 v_Jztime =         1.6141 
---------------- Step   560000 ----- CPU =   8663.6399 (sec) ----------------
Time     =   1680000.0000 TotEng   =     77462.8948 KinEng   =     40377.4133 
PotEng   =     37085.4815 E_bond   =     14197.0953 E_angle  =     16704.3128 
E_dihed  =      9792.4572 E_impro  =        58.1331 E_vdwl   =    -16170.1843 
E_coul   =     54111.3074 E_long   =    -41607.6399 E_tail   =         0.0000 
Enthalpy =     74989.2361 Temp     =       300.6500 Press    =      -359.8379 
Pxx      =      -483.4636 Pxy      =      -447.5858 Pxz      =      -145.4972 
Pyy      =      -447.3491 Pyz      =      -345.7026 Pzz      =      -148.7009 
Volume   =    471364.6779 Lx       =        55.2485 Ly       =        55.2485 
Lz       =       154.4243 Density  =         1.0007 f_2      =     10032.4925 
c_lFlux[3] =        -1.2290 c_rFlux[3] =       -13.3897 v_Jztime =         1.6434 
---------------- Step   570000 ----- CPU =   8817.1374 (sec) ----------------
Time     =   1710000.0000 TotEng   =     77461.9556 KinEng   =     40400.1382 
PotEng   =     37061.8175 E_bond   =     14201.3267 E_angle  =     16676.1525 
E_dihed  =      9808.7717 E_impro  =        56.9974 E_vdwl   =    -16168.2750 
E_coul   =     54105.9739 E_long   =    -41619.1297 E_tail   =         0.0000 
Enthalpy =     74108.7577 Temp     =       300.8192 Press    =      -487.7826 
Pxx      =      -252.9034 Pxy      =       -77.4962 Pxz      =       340.0088 
Pyy      =      -512.3256 Pyz      =      -314.6851 Pzz      =      -698.1186 
Volume   =    471364.6779 Lx       =        55.2485 Ly       =        55.2485 
Lz       =       154.4243 Density  =         1.0007 f_2      =     10217.1816 
c_lFlux[3] =       -22.2542 c_rFlux[3] =        17.7320 v_Jztime =         1.6736 
---------------- Step   580000 ----- CPU =   8972.6093 (sec) ----------------
Time     =   1740000.0000 TotEng   =     77461.8249 KinEng   =     40431.3821 
PotEng   =     37030.4428 E_bond   =     14027.0346 E_angle  =     16691.3131 
E_dihed  =     10002.4364 E_impro  =        59.4815 E_vdwl   =    -16255.2950 
E_coul   =     54118.5812 E_long   =    -41613.1091 E_tail   =         0.0000 
Enthalpy =     78393.7629 Temp     =       301.0518 Press    =       135.5670 
Pxx      =       -98.1966 Pxy      =       -87.0992 Pxz      =      -160.7402 
Pyy      =       539.2419 Pyz      =        49.4843 Pzz      =       -34.3442 
Volume   =    471364.6779 Lx       =        55.2485 Ly       =        55.2485 
Lz       =       154.4243 Density  =         1.0007 f_2      =     10408.2177 
c_lFlux[3] =        -2.8468 c_rFlux[3] =        -7.2035 v_Jztime =         1.7049 
---------------- Step   590000 ----- CPU =   9127.2255 (sec) ----------------
Time     =   1770000.0000 TotEng   =     77462.1420 KinEng   =     40420.4979 
PotEng   =     37041.6442 E_bond   =     14093.3767 E_angle  =     16710.4302 
E_dihed  =      9870.7335 E_impro  =        57.6657 E_vdwl   =    -16173.4773 
E_coul   =     54103.9319 E_long   =    -41621.0165 E_tail   =         0.0000 
Enthalpy =     77152.8424 Temp     =       300.9708 Press    =       -44.9932 
Pxx      =       223.1556 Pxy      =      -271.6024 Pxz      =       232.9068 
Pyy      =      -286.9166 Pyz      =       -52.4162 Pzz      =       -71.2186 
Volume   =    471364.6779 Lx       =        55.2485 Ly       =        55.2485 
Lz       =       154.4243 Density  =         1.0007 f_2      =     10572.3501 
c_lFlux[3] =        21.9966 c_rFlux[3] =        -4.2456 v_Jztime =         1.7318 
---------------- Step   600000 ----- CPU =   9281.3928 (sec) ----------------
Time     =   1800000.0000 TotEng   =     77462.6908 KinEng   =     40435.5654 
PotEng   =     37027.1254 E_bond   =     14223.3047 E_angle  =     16508.4984 
E_dihed  =      9914.6672 E_impro  =        59.1742 E_vdwl   =    -16172.2665 
E_coul   =     54108.2422 E_long   =    -41614.4946 E_tail   =         0.0000 
Enthalpy =     78320.9074 Temp     =       301.0830 Press    =       124.8429 
Pxx      =      -177.7112 Pxy      =        -3.9939 Pxz      =       377.1136 
Pyy      =       352.6049 Pyz      =      -174.8138 Pzz      =       199.6352 
Volume   =    471364.6779 Lx       =        55.2485 Ly       =        55.2485 
Lz       =       154.4243 Density  =         1.0007 f_2      =     10736.1689 
c_lFlux[3] =        11.2696 c_rFlux[3] =        -4.6297 v_Jztime =         1.7586 
---------------- Step   610000 ----- CPU =   9436.6583 (sec) ----------------
Time     =   1830000.0000 TotEng   =     77464.2659 KinEng   =     40250.6936 
PotEng   =     37213.5723 E_bond   =     14223.2478 E_angle  =     16654.7718 
E_dihed  =     10014.6924 E_impro  =        59.1869 E_vdwl   =    -16209.8835 
E_coul   =     54092.7712 E_long   =    -41621.2142 E_tail   =         0.0000 
Enthalpy =     76021.1834 Temp     =       299.7064 Press    =      -209.9221 
Pxx      =      -608.5364 Pxy      =       -69.4993 Pxz      =      -316.8389 
Pyy      =      -172.7752 Pyz      =      -135.3811 Pzz      =       151.5451 
Volume   =    471364.6779 Lx       =        55.2485 Ly       =        55.2485 
Lz       =       154.4243 Density  =         1.0007 f_2      =     10899.9141 
c_lFlux[3] =        -9.1826 c_rFlux[3] =         8.8609 v_Jztime =         1.7855 
---------------- Step   620000 ----- CPU =   9590.5343 (sec) ----------------
Time     =   1860000.0000 TotEng   =     77460.5134 KinEng   =     40614.9856 
PotEng   =     36845.5277 E_bond   =     14160.6723 E_angle  =     16584.6808 
E_dihed  =      9822.7000 E_impro  =        58.0708 E_vdwl   =    -16223.2642 
E_coul   =     54064.1642 E_long   =    -41621.4961 E_tail   =         0.0000 
Enthalpy =     78293.8985 Temp     =       302.4190 Press    =       121.2308 
Pxx      =       -64.8150 Pxy      =        28.3740 Pxz      =       -72.7792 
Pyy      =         7.7345 Pyz      =       -86.6073 Pzz      =       420.7729 
Volume   =    471364.6779 Lx       =        55.2485 Ly       =        55.2485 
Lz       =       154.4243 Density  =         1.0007 f_2      =     11090.3024 
c_lFlux[3] =       -23.6952 c_rFlux[3] =       -26.5934 v_Jztime =         1.8167 
---------------- Step   630000 ----- CPU =   9746.1936 (sec) ----------------
Time     =   1890000.0000 TotEng   =     77463.5969 KinEng   =     40452.5487 
PotEng   =     37011.0482 E_bond   =     14174.1146 E_angle  =     16706.4581 
E_dihed  =      9879.6694 E_impro  =        58.5155 E_vdwl   =    -16288.9213 
E_coul   =     54103.7865 E_long   =    -41622.5747 E_tail   =         0.0000 
Enthalpy =     76368.5290 Temp     =       301.2095 Press    =      -159.2972 
Pxx      =      -160.3797 Pxy      =       -70.7739 Pxz      =        90.6545 
Pyy      =       -44.2682 Pyz      =        72.4608 Pzz      =      -273.2436 
Volume   =    471364.6779 Lx       =        55.2485 Ly       =        55.2485 
Lz       =       154.4243 Density  =         1.0007 f_2      =     11278.6328 
c_lFlux[3] =        11.1704 c_rFlux[3] =        -6.6009 v_Jztime =         1.8475 
---------------- Step   640000 ----- CPU =   9900.1256 (sec) ----------------
Time     =   1920000.0000 TotEng   =     77467.4828 KinEng   =     40385.9960 
PotEng   =     37081.4868 E_bond   =     14299.7083 E_angle  =     16655.3171 
E_dihed  =      9823.2454 E_impro  =        59.4264 E_vdwl   =    -16189.8677 
E_coul   =     54060.9518 E_long   =    -41627.2944 E_tail   =         0.0000 
Enthalpy =     73038.3210 Temp     =       300.7139 Press    =      -644.3007 
Pxx      =      -374.1067 Pxy      =       225.7026 Pxz      =      -867.6999 
Pyy      =      -173.1929 Pyz      =       468.7655 Pzz      =     -1385.6026 
Volume   =    471364.6779 Lx       =        55.2485 Ly       =        55.2485 
Lz       =       154.4243 Density  =         1.0007 f_2      =     11470.0847 
c_lFlux[3] =        12.3487 c_rFlux[3] =         8.9455 v_Jztime =         1.8789 
---------------- Step   650000 ----- CPU =  10055.3221 (sec) ----------------
Time     =   1950000.0000 TotEng   =     77467.1583 KinEng   =     40252.8919 
PotEng   =     37214.2664 E_bond   =     14254.8975 E_angle  =     16785.7167 
E_dihed  =      9956.5354 E_impro  =        58.9006 E_vdwl   =    -16300.1362 
E_coul   =     54072.8935 E_long   =    -41614.5411 E_tail   =         0.0000 
Enthalpy =     75365.0021 Temp     =       299.7228 Press    =      -305.7962 
Pxx      =      -397.9089 Pxy      =        92.5019 Pxz      =      -290.0309 
Pyy      =        40.0875 Pyz      =      -174.3471 Pzz      =      -559.5672 
Volume   =    471364.6779 Lx       =        55.2485 Ly       =        55.2485 
Lz       =       154.4243 Density  =         1.0007 f_2      =     11658.8941 
c_lFlux[3] =        -0.2218 c_rFlux[3] =        -6.5085 v_Jztime =         1.9098 
---------------- Step   660000 ----- CPU =  10210.4449 (sec) ----------------
Time     =   1980000.0000 TotEng   =     77466.2336 KinEng   =     40267.1436 
PotEng   =     37199.0900 E_bond   =     14317.2273 E_angle  =     16683.4772 
E_dihed  =      9880.5579 E_impro  =        58.6303 E_vdwl   =    -16206.2667 
E_coul   =     54083.0288 E_long   =    -41617.5649 E_tail   =         0.0000 
Enthalpy =     76713.0666 Temp     =       299.8289 Press    =      -109.5616 
Pxx      =       152.8648 Pxy      =       -92.6871 Pxz      =        11.6216 
Pyy      =      -106.4895 Pyz      =       108.0208 Pzz      =      -375.0601 
Volume   =    471364.6779 Lx       =        55.2485 Ly       =        55.2485 
Lz       =       154.4243 Density  =         1.0007 f_2      =     11828.4532 
c_lFlux[3] =       -10.9587 c_rFlux[3] =        -4.2016 v_Jztime =         1.9376 
---------------- Step   670000 ----- CPU =  10364.2983 (sec) ----------------
Time     =   2010000.0000 TotEng   =     77464.2925 KinEng   =     40371.3732 
PotEng   =     37092.9193 E_bond   =     14188.9890 E_angle  =     16580.2496 
E_dihed  =      9988.7653 E_impro  =        59.8877 E_vdwl   =    -16195.7053 
E_coul   =     54094.4764 E_long   =    -41623.7434 E_tail   =         0.0000 
Enthalpy =     79084.3941 Temp     =       300.6050 Press    =       235.6727 
Pxx      =      -221.7435 Pxy      =        28.9886 Pxz      =      -180.3069 
Pyy      =       207.3706 Pyz      =      -157.0737 Pzz      =       721.3911 
Volume   =    471364.6779 Lx       =        55.2485 Ly       =        55.2485 
Lz       =       154.4243 Density  =         1.0007 f_2      =     12025.7213 
c_lFlux[3] =        -3.1067 c_rFlux[3] =        -6.2321 v_Jztime =         1.9699 
---------------- Step   680000 ----- CPU =  10519.3513 (sec) ----------------
Time     =   2040000.0000 TotEng   =     77463.8835 KinEng   =     40509.5006 
PotEng   =     36954.3828 E_bond   =     14100.5484 E_angle  =     16625.8813 
E_dihed  =      9976.6799 E_impro  =        60.8267 E_vdwl   =    -16255.3355 
E_coul   =     54078.3788 E_long   =    -41632.5968 E_tail   =         0.0000 
Enthalpy =     78142.6700 Temp     =       301.6335 Press    =        98.7416 
Pxx      =       112.3036 Pxy      =      -211.8414 Pxz      =       684.7563 
Pyy      =        72.8724 Pyz      =      -443.2815 Pzz      =       111.0489 
Volume   =    471364.6779 Lx       =        55.2485 Ly       =        55.2485 
Lz       =       154.4243 Density  =         1.0007 f_2      =     12193.3808 
c_lFlux[3] =        11.7470 c_rFlux[3] =       -17.1212 v_Jztime =         1.9973 
---------------- Step   690000 ----- CPU =  10673.5329 (sec) ----------------
Time     =   2070000.0000 TotEng   =     77463.3239 KinEng   =     40260.3234 
PotEng   =     37203.0005 E_bond   =     14197.1803 E_angle  =     16730.4590 
E_dihed  =      9883.7648 E_impro  =        58.4086 E_vdwl   =    -16188.1643 
E_coul   =     54138.2430 E_long   =    -41616.8909 E_tail   =         0.0000 
Enthalpy =     76909.0813 Temp     =       299.7781 Press    =       -80.6245 
Pxx      =         4.1625 Pxy      =      -249.5034 Pxz      =       159.8083 
Pyy      =      -389.5984 Pyz      =       234.6931 Pzz      =       143.5625 
Volume   =    471364.6779 Lx       =        55.2485 Ly       =        55.2485 
Lz       =       154.4243 Density  =         1.0007 f_2      =     12352.5705 
c_lFlux[3] =         0.4266 c_rFlux[3] =        -6.1301 v_Jztime =         2.0234 
---------------- Step   700000 ----- CPU =  10828.5951 (sec) ----------------
Time     =   2100000.0000 TotEng   =     77465.0007 KinEng   =     40424.9968 
PotEng   =     37040.0039 E_bond   =     14232.7431 E_angle  =     16539.9508 
E_dihed  =      9902.2595 E_impro  =        58.1701 E_vdwl   =    -16165.5636 
E_coul   =     54102.2686 E_long   =    -41629.8245 E_tail   =         0.0000 
Enthalpy =     75345.6258 Temp     =       301.0043 Press    =      -308.3009 
Pxx      =      -208.9769 Pxy      =       -20.6668 Pxz      =       -17.6254 
Pyy      =        86.9170 Pyz      =      -125.9193 Pzz      =      -802.8429 
Volume   =    471364.6779 Lx       =        55.2485 Ly       =        55.2485 
Lz       =       154.4243 Density  =         1.0007 f_2      =     12516.3231 
c_lFlux[3] =       -20.2819 c_rFlux[3] =       -20.0847 v_Jztime =         2.0502 
---------------- Step   710000 ----- CPU =  10982.7667 (sec) ----------------
Time     =   2130000.0000 TotEng   =     77462.2017 KinEng   =     40462.1680 
PotEng   =     37000.0337 E_bond   =     14105.6057 E_angle  =     16554.3639 
E_dihed  =     10004.5290 E_impro  =        59.1650 E_vdwl   =    -16203.0680 
E_coul   =     54105.2979 E_long   =    -41625.8598 E_tail   =         0.0000 
Enthalpy =     77672.3891 Temp     =       301.2811 Press    =        30.5755 
Pxx      =      -128.8825 Pxy      =      -542.6228 Pxz      =      -233.9498 
Pyy      =       -86.2523 Pyz      =      -446.1512 Pzz      =       306.8613 
Volume   =    471364.6779 Lx       =        55.2485 Ly       =        55.2485 
Lz       =       154.4243 Density  =         1.0007 f_2      =     12689.8025 
c_lFlux[3] =        -2.9712 c_rFlux[3] =        12.8686 v_Jztime =         2.0787 
---------------- Step   720000 ----- CPU =  11136.6799 (sec) ----------------
Time     =   2160000.0000 TotEng   =     77466.4882 KinEng   =     40258.4237 
PotEng   =     37208.0644 E_bond   =     14306.9347 E_angle  =     16710.2323 
E_dihed  =      9834.1426 E_impro  =        58.6407 E_vdwl   =    -16186.6268 
E_coul   =     54100.6145 E_long   =    -41615.8735 E_tail   =         0.0000 
Enthalpy =     77659.1580 Temp     =       299.7640 Press    =        28.0273 
Pxx      =       182.2252 Pxy      =       389.6104 Pxz      =       494.7524 
Pyy      =        72.6991 Pyz      =       -96.6912 Pzz      =      -170.8424 
Volume   =    471364.6779 Lx       =        55.2485 Ly       =        55.2485 
Lz       =       154.4243 Density  =         1.0007 f_2      =     12858.7111 
c_lFlux[3] =        20.7291 c_rFlux[3] =         8.0072 v_Jztime =         2.1063 
---------------- Step   730000 ----- CPU =  11291.5918 (sec) ----------------
Time     =   2190000.0000 TotEng   =     77464.7547 KinEng   =     40267.4108 
PotEng   =     37197.3439 E_bond   =     14202.9324 E_angle  =     16604.7088 
E_dihed  =      9966.1325 E_impro  =        59.0613 E_vdwl   =    -16123.7645 
E_coul   =     54100.5852 E_long   =    -41612.3117 E_tail   =         0.0000 
Enthalpy =     80688.2582 Temp     =       299.8309 Press    =       468.9162 
Pxx      =       153.4171 Pxy      =        47.3869 Pxz      =       -12.9844 
Pyy      =       180.4725 Pyz      =      -166.8040 Pzz      =      1072.8589 
Volume   =    471364.6779 Lx       =        55.2485 Ly       =        55.2485 
Lz       =       154.4243 Density  =         1.0007 f_2      =     13044.3589 
c_lFlux[3] =        -4.5698 c_rFlux[3] =        11.2716 v_Jztime =         2.1367 
---------------- Step   740000 ----- CPU =  11445.9452 (sec) ----------------
Time     =   2220000.0000 TotEng   =     77464.9178 KinEng   =     40260.9331 
PotEng   =     37203.9847 E_bond   =     14274.9120 E_angle  =     16663.9375 
E_dihed  =      9990.1473 E_impro  =        59.4408 E_vdwl   =    -16270.5150 
E_coul   =     54096.6154 E_long   =    -41610.5533 E_tail   =         0.0000 
Enthalpy =     73709.9920 Temp     =       299.7827 Press    =      -546.2211 
Pxx      =      -464.8063 Pxy      =       -80.2854 Pxz      =        83.8331 
Pyy      =      -345.4766 Pyz      =       -85.5542 Pzz      =      -828.3803 
Volume   =    471364.6779 Lx       =        55.2485 Ly       =        55.2485 
Lz       =       154.4243 Density  =         1.0007 f_2      =     13224.2315 
c_lFlux[3] =        10.8649 c_rFlux[3] =        -7.0233 v_Jztime =         2.1662 
---------------- Step   750000 ----- CPU =  11601.7192 (sec) ----------------
Time     =   2250000.0000 TotEng   =     77463.2015 KinEng   =     40406.1511 
PotEng   =     37057.0504 E_bond   =     14104.9002 E_angle  =     16688.1848 
E_dihed  =      9957.9914 E_impro  =        59.2615 E_vdwl   =    -16199.3239 
E_coul   =     54069.6325 E_long   =    -41623.5962 E_tail   =         0.0000 
Enthalpy =     80119.8372 Temp     =       300.8640 Press    =       386.4551 
Pxx      =       532.4333 Pxy      =        66.9777 Pxz      =       -38.7352 
Pyy      =        68.9420 Pyz      =      -506.6933 Pzz      =       557.9901 
Volume   =    471364.6779 Lx       =        55.2485 Ly       =        55.2485 
Lz       =       154.4243 Density  =         1.0007 f_2      =     13412.7689 
c_lFlux[3] =       -20.9294 c_rFlux[3] =         7.7421 v_Jztime =         2.1971 
---------------- Step   760000 ----- CPU =  11755.6676 (sec) ----------------
Time     =   2280000.0000 TotEng   =     77463.7343 KinEng   =     40402.7664 
PotEng   =     37060.9679 E_bond   =     14178.3944 E_angle  =     16658.1718 
E_dihed  =      9915.3206 E_impro  =        59.3496 E_vdwl   =    -16161.2116 
E_coul   =     54037.7341 E_long   =    -41626.7909 E_tail   =         0.0000 
Enthalpy =     77931.3517 Temp     =       300.8388 Press    =        68.0233 
Pxx      =      -166.1890 Pxy      =       208.8084 Pxz      =      -105.2577 
Pyy      =       446.8369 Pyz      =       165.8834 Pzz      =       -76.5779 
Volume   =    471364.6779 Lx       =        55.2485 Ly       =        55.2485 
Lz       =       154.4243 Density  =         1.0007 f_2      =     13567.9715 
c_lFlux[3] =        24.0072 c_rFlux[3] =       -11.5870 v_Jztime =         2.2225 
---------------- Step   770000 ----- CPU =  11911.5711 (sec) ----------------
Time     =   2310000.0000 TotEng   =     77463.5729 KinEng   =     40365.4124 
PotEng   =     37098.1604 E_bond   =     14121.2341 E_angle  =     16750.9049 
E_dihed  =      9990.1340 E_impro  =        58.5586 E_vdwl   =    -16259.7605 
E_coul   =     54066.0948 E_long   =    -41629.0054 E_tail   =         0.0000 
Enthalpy =     75132.8835 Temp     =       300.5606 Press    =      -339.0404 
Pxx      =      -300.1297 Pxy      =       116.7903 Pxz      =       434.7759 
Pyy      =      -415.6968 Pyz      =      -130.0862 Pzz      =      -301.2947 
Volume   =    471364.6779 Lx       =        55.2485 Ly       =        55.2485 
Lz       =       154.4243 Density  =         1.0007 f_2      =     13741.7467 
c_lFlux[3] =         8.1601 c_rFlux[3] =        26.0172 v_Jztime =         2.2510 
---------------- Step   780000 ----- CPU =  12067.0011 (sec) ----------------
Time     =   2340000.0000 TotEng   =     77463.9970 KinEng   =     40289.6681 
PotEng   =     37174.3289 E_bond   =     14279.8262 E_angle  =     16566.5754 
E_dihed  =      9975.4894 E_impro  =        58.6210 E_vdwl   =    -16158.8893 
E_coul   =     54082.8173 E_long   =    -41630.1112 E_tail   =         0.0000 
Enthalpy =     81593.5024 Temp     =       299.9966 Press    =       600.7104 
Pxx      =       249.7415 Pxy      =       289.4314 Pxz      =       141.0322 
Pyy      =       652.1121 Pyz      =       137.8410 Pzz      =       900.2774 
Volume   =    471364.6779 Lx       =        55.2485 Ly       =        55.2485 
Lz       =       154.4243 Density  =         1.0007 f_2      =     13926.7933 
c_lFlux[3] =         4.4100 c_rFlux[3] =         2.4668 v_Jztime =         2.2813 
---------------- Step   790000 ----- CPU =  12221.7632 (sec) ----------------
Time     =   2370000.0000 TotEng   =     77462.3273 KinEng   =     40266.2228 
PotEng   =     37196.1045 E_bond   =     14199.5700 E_angle  =     16750.7503 
E_dihed  =      9776.4435 E_impro  =        57.0928 E_vdwl   =    -16020.6317 
E_coul   =     54068.3901 E_long   =    -41635.5105 E_tail   =         0.0000 
Enthalpy =     77271.8042 Temp     =       299.8221 Press    =       -27.7150 
Pxx      =        48.6138 Pxy      =      -389.2821 Pxz      =      -207.9279 
Pyy      =      -246.7933 Pyz      =       -77.8618 Pzz      =       115.0346 
Volume   =    471364.6779 Lx       =        55.2485 Ly       =        55.2485 
Lz       =       154.4243 Density  =         1.0007 f_2      =     14102.8548 
c_lFlux[3] =         0.0706 c_rFlux[3] =        -4.8565 v_Jztime =         2.3101 
---------------- Step   800000 ----- CPU =  12376.7629 (sec) ----------------
Time     =   2400000.0000 TotEng   =     77467.5367 KinEng   =     40230.7324 
PotEng   =     37236.8043 E_bond   =     14094.9111 E_angle  =     16819.2358 
E_dihed  =     10036.3926 E_impro  =        60.3060 E_vdwl   =    -16238.5708 
E_coul   =     54086.4273 E_long   =    -41621.8976 E_tail   =         0.0000 
Enthalpy =     78599.2142 Temp     =       299.5578 Press    =       164.6227 
Pxx      =       736.9974 Pxy      =       265.2895 Pxz      =       137.9304 
Pyy      =      -160.4553 Pyz      =      -267.8706 Pzz      =       -82.6739 
Volume   =    471364.6779 Lx       =        55.2485 Ly       =        55.2485 
Lz       =       154.4243 Density  =         1.0007 f_2      =     14315.4163 
c_lFlux[3] =         4.1666 c_rFlux[3] =        14.2513 v_Jztime =         2.3449 
---------------- Step   810000 ----- CPU =  12530.6006 (sec) ----------------
Time     =   2430000.0000 TotEng   =     77461.3690 KinEng   =     40424.5786 
PotEng   =     37036.7904 E_bond   =     14032.8869 E_angle  =     16803.7539 
E_dihed  =      9898.0791 E_impro  =        58.3841 E_vdwl   =    -16214.7481 
E_coul   =     54075.8992 E_long   =    -41617.4648 E_tail   =         0.0000 
Enthalpy =     77301.0172 Temp     =       301.0012 Press    =       -23.3260 
Pxx      =       -32.7728 Pxy      =        79.1396 Pxz      =      -179.8391 
Pyy      =      -261.7932 Pyz      =        15.9373 Pzz      =       224.5879 
Volume   =    471364.6779 Lx       =        55.2485 Ly       =        55.2485 
Lz       =       154.4243 Density  =         1.0007 f_2      =     14518.8760 
c_lFlux[3] =        19.0823 c_rFlux[3] =       -20.9456 v_Jztime =         2.3783 
---------------- Step   820000 ----- CPU =  12685.7461 (sec) ----------------
Time     =   2460000.0000 TotEng   =     77466.0270 KinEng   =     40299.3728 
PotEng   =     37166.6542 E_bond   =     14320.3461 E_angle  =     16611.3136 
E_dihed  =      9960.0112 E_impro  =        60.2262 E_vdwl   =    -16229.0657 
E_coul   =     54075.4297 E_long   =    -41631.6068 E_tail   =         0.0000 
Enthalpy =     76083.3596 Temp     =       300.0689 Press    =      -201.1337 
Pxx      =       548.6677 Pxy      =       242.0469 Pxz      =      -695.0852 
Pyy      =      -619.6914 Pyz      =       262.1724 Pzz      =      -532.3773 
Volume   =    471364.6779 Lx       =        55.2485 Ly       =        55.2485 
Lz       =       154.4243 Density  =         1.0007 f_2      =     14692.9330 
c_lFlux[3] =         3.7232 c_rFlux[3] =         0.6778 v_Jztime =         2.4068 
---------------- Step   830000 ----- CPU =  12840.1640 (sec) ----------------
Time     =   2490000.0000 TotEng   =     77462.2433 KinEng   =     40469.1792 
PotEng   =     36993.0641 E_bond   =     14086.3947 E_angle  =     16725.6979 
E_dihed  =      9834.9175 E_impro  =        59.2703 E_vdwl   =    -16154.2663 
E_coul   =     54075.5294 E_long   =    -41634.4795 E_tail   =         0.0000 
Enthalpy =     76987.1506 Temp     =       301.3333 Press    =       -69.1107 
Pxx      =      -365.8118 Pxy      =      -253.0888 Pxz      =        75.3312 
Pyy      =        -7.5304 Pyz      =      -119.2246 Pzz      =       166.0101 
Volume   =    471364.6779 Lx       =        55.2485 Ly       =        55.2485 
Lz       =       154.4243 Density  =         1.0007 f_2      =     14847.5395 
c_lFlux[3] =         7.7087 c_rFlux[3] =        -4.8811 v_Jztime =         2.4321 
---------------- Step   840000 ----- CPU =  12995.0135 (sec) ----------------
Time     =   2520000.0000 TotEng   =     77464.6704 KinEng   =     40276.5342 
PotEng   =     37188.1362 E_bond   =     14206.2410 E_angle  =     16616.7698 
E_dihed  =     10049.8519 E_impro  =        59.8197 E_vdwl   =    -16187.5829 
E_coul   =     54070.5815 E_long   =    -41627.5446 E_tail   =         0.0000 
Enthalpy =     77408.4633 Temp     =       299.8988 Press    =        -8.1763 
Pxx      =       397.1640 Pxy      =       -67.2077 Pxz      =      -270.9808 
Pyy      =      -255.7203 Pyz      =       -26.1123 Pzz      =      -165.9727 
Volume   =    471364.6779 Lx       =        55.2485 Ly       =        55.2485 
Lz       =       154.4243 Density  =         1.0007 f_2      =     15038.6956 
c_lFlux[3] =        -0.0004 c_rFlux[3] =        18.8266 v_Jztime =         2.4634 
---------------- Step   850000 ----- CPU =  13150.2881 (sec) ----------------
Time     =   2550000.0000 TotEng   =     77466.3576 KinEng   =     40249.7725 
PotEng   =     37216.5852 E_bond   =     14298.4223 E_angle  =     16624.2904 
E_dihed  =      9945.2952 E_impro  =        59.3070 E_vdwl   =    -16155.1193 
E_coul   =     54076.4843 E_long   =    -41632.0948 E_tail   =         0.0000 
Enthalpy =     76456.2673 Temp     =       299.6996 Press    =      -146.9357 
Pxx      =       131.7413 Pxy      =        68.7093 Pxz      =      -445.1138 
Pyy      =        87.5455 Pyz      =      -209.0568 Pzz      =      -660.0940 
Volume   =    471364.6779 Lx       =        55.2485 Ly       =        55.2485 
Lz       =       154.4243 Density  =         1.0007 f_2      =     15212.4115 
c_lFlux[3] =         3.9017 c_rFlux[3] =        -1.8020 v_Jztime =         2.4919 
---------------- Step   860000 ----- CPU =  13305.1820 (sec) ----------------
Time     =   2580000.0000 TotEng   =     77464.8195 KinEng   =     40408.4597 
PotEng   =     37056.3598 E_bond   =     14319.2557 E_angle  =     16684.0126 
E_dihed  =      9832.7857 E_impro  =        58.4410 E_vdwl   =    -16334.4649 
E_coul   =     54113.8209 E_long   =    -41617.4911 E_tail   =         0.0000 
Enthalpy =     71392.3858 Temp     =       300.8812 Press    =      -883.3440 
Pxx      =      -979.7248 Pxy      =      -447.1118 Pxz      =       173.2676 
Pyy      =      -674.2130 Pyz      =       107.4504 Pzz      =      -996.0942 
Volume   =    471364.6779 Lx       =        55.2485 Ly       =        55.2485 
Lz       =       154.4243 Density  =         1.0007 f_2      =     15395.6906 
c_lFlux[3] =        17.8823 c_rFlux[3] =         9.0339 v_Jztime =         2.5219 
---------------- Step   870000 ----- CPU =  13461.2813 (sec) ----------------
Time     =   2610000.0000 TotEng   =     77465.6704 KinEng   =     40322.8448 
PotEng   =     37142.8257 E_bond   =     13986.7175 E_angle  =     16853.8129 
E_dihed  =      9957.2180 E_impro  =        59.8243 E_vdwl   =    -16210.4414 
E_coul   =     54111.2276 E_long   =    -41615.5331 E_tail   =         0.0000 
Enthalpy =     78337.0685 Temp     =       300.2437 Press    =       126.7604 
Pxx      =       -75.0556 Pxy      =       143.8163 Pxz      =       392.4129 
Pyy      =       343.1647 Pyz      =       314.8285 Pzz      =       112.1722 
Volume   =    471364.6779 Lx       =        55.2485 Ly       =        55.2485 
Lz       =       154.4243 Density  =         1.0007 f_2      =     15542.4820 
c_lFlux[3] =        -0.7216 c_rFlux[3] =        -0.0478 v_Jztime =         2.5459 
---------------- Step   880000 ----- CPU =  13616.4453 (sec) ----------------
Time     =   2640000.0000 TotEng   =     77465.7988 KinEng   =     40398.5868 
PotEng   =     37067.2120 E_bond   =     14253.5702 E_angle  =     16542.7219 
E_dihed  =      9935.1591 E_impro  =        59.6390 E_vdwl   =    -16213.2990 
E_coul   =     54111.8552 E_long   =    -41622.4344 E_tail   =         0.0000 
Enthalpy =     80110.2969 Temp     =       300.8077 Press    =       384.6895 
Pxx      =       192.0361 Pxy      =      -223.5078 Pxz      =        97.1393 
Pyy      =       384.0842 Pyz      =       -34.9732 Pzz      =       577.9482 
Volume   =    471364.6779 Lx       =        55.2485 Ly       =        55.2485 
Lz       =       154.4243 Density  =         1.0007 f_2      =     15735.9000 
c_lFlux[3] =         9.7547 c_rFlux[3] =        19.3465 v_Jztime =         2.5776 
---------------- Step   890000 ----- CPU =  13772.0700 (sec) ----------------
Time     =   2670000.0000 TotEng   =     77463.9619 KinEng   =     40331.0548 
PotEng   =     37132.9071 E_bond   =     14039.9630 E_angle  =     16772.6975 
E_dihed  =      9922.1732 E_impro  =        59.4897 E_vdwl   =    -16121.1703 
E_coul   =     54090.0533 E_long   =    -41630.2992 E_tail   =         0.0000 
Enthalpy =     79300.1975 Temp     =       300.3048 Press    =       267.1133 
Pxx      =       -87.0612 Pxy      =       180.2624 Pxz      =       212.7902 
Pyy      =       336.2403 Pyz      =       -28.2391 Pzz      =       552.1607 
Volume   =    471364.6779 Lx       =        55.2485 Ly       =        55.2485 
Lz       =       154.4243 Density  =         1.0007 f_2      =     15906.1298 
[...]
Time     =  41400000.0000 TotEng   =     77503.7543 KinEng   =     40314.4507 
PotEng   =     37189.3036 E_bond   =     14208.7511 E_angle  =     16732.8028 
E_dihed  =      9887.6176 E_impro  =        59.1303 E_vdwl   =    -16151.5812 
E_coul   =     54080.8840 E_long   =    -41628.3009 E_tail   =         0.0000 
Enthalpy =     76598.0306 Temp     =       300.1812 Press    =      -131.7537 
Pxx      =      -297.7956 Pxy      =      -285.7210 Pxz      =       173.6441 
Pyy      =      -133.2578 Pyz      =      -310.5403 Pzz      =        35.7923 
Volume   =    471364.6779 Lx       =        55.2485 Ly       =        55.2485 
Lz       =       154.4243 Density  =         1.0007 f_2      =    246015.0478 
c_lFlux[3] =       -27.9598 c_rFlux[3] =        -5.5403 v_Jztime =        40.2986 
---------------- Step 13810000 ----- CPU = 214115.7225 (sec) ----------------
Time     =  41430000.0000 TotEng   =     77505.2927 KinEng   =     40357.0237 
PotEng   =     37148.2690 E_bond   =     14233.5658 E_angle  =     16646.6989 
E_dihed  =      9869.9653 E_impro  =        58.9047 E_vdwl   =    -16097.6089 
E_coul   =     54068.1076 E_long   =    -41631.3645 E_tail   =         0.0000 
Enthalpy =     77964.8832 Temp     =       300.4982 Press    =        66.8556 
Pxx      =        99.4619 Pxy      =      -107.6998 Pxz      =       359.7885 
Pyy      =       214.0138 Pyz      =       359.0291 Pzz      =      -112.9088 
Volume   =    471364.6779 Lx       =        55.2485 Ly       =        55.2485 
Lz       =       154.4243 Density  =         1.0007 f_2      =    246184.2233 
c_lFlux[3] =       -15.0813 c_rFlux[3] =         8.6950 v_Jztime =        40.3263 
---------------- Step 13820000 ----- CPU = 214271.1612 (sec) ----------------
Time     =  41460000.0000 TotEng   =     77502.2534 KinEng   =     40339.1911 
PotEng   =     37163.0623 E_bond   =     14076.7240 E_angle  =     16814.5552 
E_dihed  =      9914.1067 E_impro  =        59.7282 E_vdwl   =    -16202.6880 
E_coul   =     54119.2249 E_long   =    -41618.5887 E_tail   =         0.0000 
Enthalpy =     78822.0368 Temp     =       300.3654 Press    =       191.9861 
Pxx      =       403.0663 Pxy      =       247.3257 Pxz      =       318.2529 
Pyy      =       182.5907 Pyz      =       219.1271 Pzz      =        -9.6989 
Volume   =    471364.6779 Lx       =        55.2485 Ly       =        55.2485 
Lz       =       154.4243 Density  =         1.0007 f_2      =    246394.6407 
c_lFlux[3] =       -17.2187 c_rFlux[3] =        -0.4701 v_Jztime =        40.3608 
---------------- Step 13830000 ----- CPU = 214425.5427 (sec) ----------------
Time     =  41490000.0000 TotEng   =     77503.0003 KinEng   =     40341.4260 
PotEng   =     37161.5744 E_bond   =     14290.1909 E_angle  =     16623.7622 
E_dihed  =      9935.3968 E_impro  =        59.4443 E_vdwl   =    -16218.5118 
E_coul   =     54091.3424 E_long   =    -41620.0504 E_tail   =         0.0000 
Enthalpy =     75788.1838 Temp     =       300.3820 Press    =      -249.4507 
Pxx      =       122.9606 Pxy      =        97.4218 Pxz      =      -182.2888 
Pyy      =      -103.1059 Pyz      =       227.6187 Pzz      =      -768.2069 
Volume   =    471364.6779 Lx       =        55.2485 Ly       =        55.2485 
Lz       =       154.4243 Density  =         1.0007 f_2      =    246576.6937 
c_lFlux[3] =       -17.3665 c_rFlux[3] =       -15.5988 v_Jztime =        40.3906 
---------------- Step 13840000 ----- CPU = 214580.5456 (sec) ----------------
Time     =  41520000.0000 TotEng   =     77502.0091 KinEng   =     40548.6000 
PotEng   =     36953.4091 E_bond   =     14177.6863 E_angle  =     16576.8324 
E_dihed  =      9881.3536 E_impro  =        57.9947 E_vdwl   =    -16225.4090 
E_coul   =     54101.0538 E_long   =    -41616.1028 E_tail   =         0.0000 
Enthalpy =     79279.7345 Temp     =       301.9246 Press    =       258.6019 
Pxx      =      -239.4732 Pxy      =      -354.1567 Pxz      =       176.7262 
Pyy      =       217.7617 Pyz      =       246.0127 Pzz      =       797.5173 
Volume   =    471364.6779 Lx       =        55.2485 Ly       =        55.2485 
Lz       =       154.4243 Density  =         1.0007 f_2      =    246721.9530 
c_lFlux[3] =         1.9739 c_rFlux[3] =        19.0776 v_Jztime =        40.4144 
---------------- Step 13850000 ----- CPU = 214734.9035 (sec) ----------------
Time     =  41550000.0000 TotEng   =     77502.6830 KinEng   =     40411.4223 
PotEng   =     37091.2607 E_bond   =     14082.2407 E_angle  =     16631.3435 
E_dihed  =      9961.1194 E_impro  =        59.3422 E_vdwl   =    -16123.5390 
E_coul   =     54090.8687 E_long   =    -41610.1148 E_tail   =         0.0000 
Enthalpy =     80264.4083 Temp     =       300.9032 Press    =       401.7423 
Pxx      =       134.0337 Pxy      =      -530.0548 Pxz      =      -173.6764 
Pyy      =       555.1453 Pyz      =       289.3262 Pzz      =       516.0479 
Volume   =    471364.6779 Lx       =        55.2485 Ly       =        55.2485 
Lz       =       154.4243 Density  =         1.0007 f_2      =    246900.6305 
c_lFlux[3] =         1.2070 c_rFlux[3] =       -14.7702 v_Jztime =        40.4437 
---------------- Step 13860000 ----- CPU = 214890.1693 (sec) ----------------
Time     =  41580000.0000 TotEng   =     77504.7476 KinEng   =     40206.3968 
PotEng   =     37298.3508 E_bond   =     14202.6806 E_angle  =     16741.7473 
E_dihed  =      9954.8683 E_impro  =        58.9867 E_vdwl   =    -16108.4487 
E_coul   =     54070.5217 E_long   =    -41622.0051 E_tail   =         0.0000 
Enthalpy =     77253.2387 Temp     =       299.3766 Press    =       -36.5865 
Pxx      =       332.9748 Pxy      =      -159.7089 Pxz      =        71.8724 
Pyy      =       205.1945 Pyz      =       350.3452 Pzz      =      -647.9287 
Volume   =    471364.6779 Lx       =        55.2485 Ly       =        55.2485 
Lz       =       154.4243 Density  =         1.0007 f_2      =    247071.6959 
c_lFlux[3] =        -1.3286 c_rFlux[3] =        -3.6814 v_Jztime =        40.4717 
---------------- Step 13870000 ----- CPU = 215045.1921 (sec) ----------------
Time     =  41610000.0000 TotEng   =     77502.9190 KinEng   =     40428.4917 
PotEng   =     37074.4274 E_bond   =     14214.7239 E_angle  =     16747.4070 
E_dihed  =      9828.5752 E_impro  =        57.2607 E_vdwl   =    -16258.1958 
E_coul   =     54097.2514 E_long   =    -41612.5950 E_tail   =         0.0000 
Enthalpy =     76496.3529 Temp     =       301.0303 Press    =      -146.4230 
Pxx      =      -530.1406 Pxy      =       317.3181 Pxz      =       665.3494 
Pyy      =       258.7566 Pyz      =       410.3780 Pzz      =      -167.8851 
Volume   =    471364.6779 Lx       =        55.2485 Ly       =        55.2485 
Lz       =       154.4243 Density  =         1.0007 f_2      =    247270.2527 
c_lFlux[3] =         1.8107 c_rFlux[3] =        -5.3293 v_Jztime =        40.5042 
---------------- Step 13880000 ----- CPU = 215199.8388 (sec) ----------------
Time     =  41640000.0000 TotEng   =     77503.9071 KinEng   =     40331.5043 
PotEng   =     37172.4028 E_bond   =     14206.1527 E_angle  =     16680.7744 
E_dihed  =      9908.6581 E_impro  =        58.4071 E_vdwl   =    -16172.4440 
E_coul   =     54115.5161 E_long   =    -41624.6616 E_tail   =         0.0000 
Enthalpy =     79246.7707 Temp     =       300.3082 Press    =       253.5307 
Pxx      =       408.9325 Pxy      =        70.3603 Pxz      =       -69.5697 
Pyy      =       194.9389 Pyz      =      -220.8889 Pzz      =       156.7206 
Volume   =    471364.6779 Lx       =        55.2485 Ly       =        55.2485 
Lz       =       154.4243 Density  =         1.0007 f_2      =    247456.2277 
c_lFlux[3] =        28.1978 c_rFlux[3] =       -13.6216 v_Jztime =        40.5347 
---------------- Step 13890000 ----- CPU = 215355.2487 (sec) ----------------
Time     =  41670000.0000 TotEng   =     77504.9072 KinEng   =     40303.2661 
PotEng   =     37201.6411 E_bond   =     14088.6648 E_angle  =     16726.3339 
E_dihed  =     10025.1926 E_impro  =        59.9812 E_vdwl   =    -16180.2213 
E_coul   =     54099.2203 E_long   =    -41617.5305 E_tail   =         0.0000 
Enthalpy =     77359.4403 Temp     =       300.0979 Press    =       -21.1608 
Pxx      =       583.5179 Pxy      =       -24.3704 Pxz      =        14.3904 
Pyy      =      -232.1857 Pyz      =       338.4295 Pzz      =      -414.8145 
Volume   =    471364.6779 Lx       =        55.2485 Ly       =        55.2485 
Lz       =       154.4243 Density  =         1.0007 f_2      =    247641.9281 
c_lFlux[3] =       -18.8268 c_rFlux[3] =       -18.4515 v_Jztime =        40.5651 
---------------- Step 13900000 ----- CPU = 215509.2907 (sec) ----------------
Time     =  41700000.0000 TotEng   =     77504.1187 KinEng   =     40103.4498 
PotEng   =     37400.6689 E_bond   =     14254.4378 E_angle  =     16734.7647 
E_dihed  =      9892.9950 E_impro  =        59.2854 E_vdwl   =    -16062.6621 
E_coul   =     54137.9775 E_long   =    -41616.1293 E_tail   =         0.0000 
Enthalpy =     79615.5897 Temp     =       298.6101 Press    =       307.1512 
Pxx      =       188.8837 Pxy      =       -48.7341 Pxz      =      -283.4009 
Pyy      =       308.6539 Pyz      =      -161.1370 Pzz      =       423.9160 
Volume   =    471364.6779 Lx       =        55.2485 Ly       =        55.2485 
Lz       =       154.4243 Density  =         1.0007 f_2      =    247801.4210 
c_lFlux[3] =         6.7368 c_rFlux[3] =       -11.1563 v_Jztime =        40.5913 
---------------- Step 13910000 ----- CPU = 215664.5155 (sec) ----------------
Time     =  41730000.0000 TotEng   =     77500.9586 KinEng   =     40463.9660 
PotEng   =     37036.9926 E_bond   =     14069.4776 E_angle  =     16740.9402 
E_dihed  =      9858.1735 E_impro  =        59.2899 E_vdwl   =    -16150.6548 
E_coul   =     54072.4260 E_long   =    -41612.6599 E_tail   =         0.0000 
Enthalpy =     78935.0402 Temp     =       301.2945 Press    =       208.6128 
Pxx      =      -114.9253 Pxy      =       256.4808 Pxz      =        78.6157 
Pyy      =       605.5467 Pyz      =       408.3825 Pzz      =       135.2170 
Volume   =    471364.6779 Lx       =        55.2485 Ly       =        55.2485 
Lz       =       154.4243 Density  =         1.0007 f_2      =    247989.3982 
c_lFlux[3] =        -8.9196 c_rFlux[3] =         8.8883 v_Jztime =        40.6220 
---------------- Step 13920000 ----- CPU = 215819.1562 (sec) ----------------
Time     =  41760000.0000 TotEng   =     77501.9666 KinEng   =     40327.3390 
PotEng   =     37174.6276 E_bond   =     14100.9754 E_angle  =     16706.7861 
E_dihed  =      9973.0310 E_impro  =        59.6039 E_vdwl   =    -16151.3569 
E_coul   =     54100.6307 E_long   =    -41615.0427 E_tail   =         0.0000 
Enthalpy =     80417.6246 Temp     =       300.2771 Press    =       424.1345 
Pxx      =       611.1119 Pxy      =       -16.8893 Pxz      =      -138.8713 
Pyy      =       498.0720 Pyz      =        83.1927 Pzz      =       163.2197 
Volume   =    471364.6779 Lx       =        55.2485 Ly       =        55.2485 
Lz       =       154.4243 Density  =         1.0007 f_2      =    248168.6906 
c_lFlux[3] =        21.5277 c_rFlux[3] =         7.1204 v_Jztime =        40.6514 
---------------- Step 13930000 ----- CPU = 215975.0862 (sec) ----------------
Time     =  41790000.0000 TotEng   =     77504.7283 KinEng   =     40242.9491 
PotEng   =     37261.7792 E_bond   =     14275.4001 E_angle  =     16631.2785 
E_dihed  =      9957.3609 E_impro  =        58.6239 E_vdwl   =    -16126.4265 
E_coul   =     54079.5889 E_long   =    -41614.0466 E_tail   =         0.0000 
Enthalpy =     78965.7177 Temp     =       299.6488 Press    =       212.5270 
Pxx      =       545.3829 Pxy      =      -297.3431 Pxz      =        68.4538 
Pyy      =       -90.1354 Pyz      =       508.4983 Pzz      =       182.3336 
Volume   =    471364.6779 Lx       =        55.2485 Ly       =        55.2485 
Lz       =       154.4243 Density  =         1.0007 f_2      =    248356.1970 
c_lFlux[3] =         4.4471 c_rFlux[3] =       -22.7856 v_Jztime =        40.6821 
---------------- Step 13940000 ----- CPU = 216130.5414 (sec) ----------------
Time     =  41820000.0000 TotEng   =     77501.6929 KinEng   =     40154.5430 
PotEng   =     37347.1499 E_bond   =     14260.1607 E_angle  =     16752.9912 
E_dihed  =      9993.0777 E_impro  =        58.3988 E_vdwl   =    -16185.7714 
E_coul   =     54078.7652 E_long   =    -41610.4723 E_tail   =         0.0000 
Enthalpy =     78104.6802 Temp     =       298.9905 Press    =        87.7153 
Pxx      =        76.2002 Pxy      =       -59.3828 Pxz      =       236.1638 
Pyy      =       -56.9787 Pyz      =      -127.8257 Pzz      =       243.9244 
Volume   =    471364.6779 Lx       =        55.2485 Ly       =        55.2485 
Lz       =       154.4243 Density  =         1.0007 f_2      =    248535.6260 
c_lFlux[3] =        -1.9028 c_rFlux[3] =         4.0925 v_Jztime =        40.7115 
---------------- Step 13950000 ----- CPU = 216286.0063 (sec) ----------------
Time     =  41850000.0000 TotEng   =     77503.7281 KinEng   =     40103.7816 
PotEng   =     37399.9465 E_bond   =     14182.0200 E_angle  =     16715.7255 
E_dihed  =     10043.7494 E_impro  =        60.1127 E_vdwl   =    -16106.1760 
E_coul   =     54117.9354 E_long   =    -41613.4205 E_tail   =         0.0000 
Enthalpy =     76703.6996 Temp     =       298.6125 Press    =      -116.3784 
Pxx      =      -221.3353 Pxy      =        17.5392 Pxz      =      -246.3210 
Pyy      =       240.0596 Pyz      =       -36.9716 Pzz      =      -367.8596 
Volume   =    471364.6779 Lx       =        55.2485 Ly       =        55.2485 
Lz       =       154.4243 Density  =         1.0007 f_2      =    248713.4194 
c_lFlux[3] =        -2.6579 c_rFlux[3] =        -7.9397 v_Jztime =        40.7406 
---------------- Step 13960000 ----- CPU = 216441.2112 (sec) ----------------
Time     =  41880000.0000 TotEng   =     77501.1578 KinEng   =     40426.4946 
PotEng   =     37074.6631 E_bond   =     14212.9799 E_angle  =     16639.4858 
E_dihed  =      9876.8089 E_impro  =        58.4004 E_vdwl   =    -16215.1260 
E_coul   =     54112.4336 E_long   =    -41610.3194 E_tail   =         0.0000 
Enthalpy =     79046.8282 Temp     =       301.0155 Press    =       224.8454 
Pxx      =      -218.5308 Pxy      =       385.8980 Pxz      =       659.1948 
Pyy      =       414.6044 Pyz      =      -175.7679 Pzz      =       478.4626 
Volume   =    471364.6779 Lx       =        55.2485 Ly       =        55.2485 
Lz       =       154.4243 Density  =         1.0007 f_2      =    248890.5915 
c_lFlux[3] =       -21.3473 c_rFlux[3] =       -14.9682 v_Jztime =        40.7697 
---------------- Step 13970000 ----- CPU = 216595.6655 (sec) ----------------
Time     =  41910000.0000 TotEng   =     77501.2964 KinEng   =     40413.9914 
PotEng   =     37087.3051 E_bond   =     14225.1849 E_angle  =     16705.6894 
E_dihed  =      9779.9162 E_impro  =        57.0081 E_vdwl   =    -16171.7083 
E_coul   =     54104.3834 E_long   =    -41613.1686 E_tail   =         0.0000 
Enthalpy =     76555.5311 Temp     =       300.9224 Press    =      -137.5785 
Pxx      =       146.4299 Pxy      =       -86.6428 Pxz      =        85.5509 
Pyy      =      -206.0651 Pyz      =       421.6916 Pzz      =      -353.1001 
Volume   =    471364.6779 Lx       =        55.2485 Ly       =        55.2485 
Lz       =       154.4243 Density  =         1.0007 f_2      =    249081.0931 
c_lFlux[3] =        12.6843 c_rFlux[3] =         5.4455 v_Jztime =        40.8009 
---------------- Step 13980000 ----- CPU = 216751.7820 (sec) ----------------
Time     =  41940000.0000 TotEng   =     77502.7141 KinEng   =     40355.1154 
PotEng   =     37147.5987 E_bond   =     14225.4806 E_angle  =     16679.5531 
E_dihed  =      9923.0942 E_impro  =        58.6305 E_vdwl   =    -16195.6309 
E_coul   =     54070.1888 E_long   =    -41613.7175 E_tail   =         0.0000 
Enthalpy =     78756.3724 Temp     =       300.4840 Press    =       182.3670 
Pxx      =       177.6917 Pxy      =        -4.6826 Pxz      =      -502.5721 
Pyy      =        44.9992 Pyz      =      -240.9420 Pzz      =       324.4100 
Volume   =    471364.6779 Lx       =        55.2485 Ly       =        55.2485 
Lz       =       154.4243 Density  =         1.0007 f_2      =    249219.1750 
c_lFlux[3] =        11.2694 c_rFlux[3] =         6.5498 v_Jztime =        40.8235 
---------------- Step 13990000 ----- CPU = 216907.6653 (sec) ----------------
Time     =  41970000.0000 TotEng   =     77501.4651 KinEng   =     40285.2703 
PotEng   =     37216.1949 E_bond   =     14234.0063 E_angle  =     16773.8732 
E_dihed  =      9961.1637 E_impro  =        58.4998 E_vdwl   =    -16277.4681 
E_coul   =     54078.4319 E_long   =    -41612.3120 E_tail   =         0.0000 
Enthalpy =     72891.4497 Temp     =       299.9639 Press    =      -670.6091 
Pxx      =      -488.6582 Pxy      =      -225.9062 Pxz      =        83.4733 
Pyy      =      -839.5550 Pyz      =      -436.4857 Pzz      =      -683.6142 
Volume   =    471364.6779 Lx       =        55.2485 Ly       =        55.2485 
Lz       =       154.4243 Density  =         1.0007 f_2      =    249381.6320 
c_lFlux[3] =         9.6880 c_rFlux[3] =        -0.8585 v_Jztime =        40.8501 
---------------- Step 14000000 ----- CPU = 217062.6775 (sec) ----------------
Time     =  42000000.0000 TotEng   =     77501.2364 KinEng   =     40290.7604 
PotEng   =     37210.4760 E_bond   =     14205.5989 E_angle  =     16628.1872 
E_dihed  =      9965.7500 E_impro  =        58.5112 E_vdwl   =    -16108.0327 
E_coul   =     54071.2866 E_long   =    -41610.8253 E_tail   =         0.0000 
Enthalpy =     78103.1737 Temp     =       300.0048 Press    =        87.5625 
Pxx      =       616.2055 Pxy      =      -374.0652 Pxz      =       126.1095 
Pyy      =       -31.6868 Pyz      =       319.3289 Pzz      =      -321.8311 
Volume   =    471364.6779 Lx       =        55.2485 Ly       =        55.2485 
Lz       =       154.4243 Density  =         1.0007 f_2      =    249551.1394 
c_lFlux[3] =       -21.8851 c_rFlux[3] =        18.9410 v_Jztime =        40.8779 
Loop time of 217063 on 160 procs for 14000000 steps with 45056 atoms

Performance: 16.718 ns/day, 1.436 hours/ns, 64.498 timesteps/s
98.1% CPU use with 160 MPI tasks x 1 OpenMP threads

MPI task timing breakdown:
Section |  min time  |  avg time  |  max time  |%varavg| %total
---------------------------------------------------------------
Pair    | 89891      | 96934      | 1.0225e+05 | 748.9 | 44.66
Bond    | 7379       | 7679.8     | 8078       | 154.7 |  3.54
Kspace  | 23849      | 25163      | 26443      | 479.1 | 11.59
Neigh   | 7168.1     | 7187.9     | 7206.5     |  10.9 |  3.31
Comm    | 40422      | 44994      | 51125      |1007.9 | 20.73
Output  | 417.5      | 1257.4     | 2113.7     |1412.7 |  0.58
Modify  | 32577      | 32755      | 32831      |  26.0 | 15.09
Other   |            | 1092       |            |       |  0.50

Nlocal:    281.6 ave 307 max 256 min
Histogram: 5 10 11 22 32 27 27 15 8 3
Nghost:    6983.26 ave 7142 max 6876 min
Histogram: 5 23 17 38 29 24 13 5 5 1
Neighs:    154585 ave 174388 max 131885 min
Histogram: 3 3 8 23 33 30 31 15 9 5

Total # of neighbors = 24733570
Ave neighs/atom = 548.952
Ave special neighs/atom = 10.5455
Neighbor list builds = 1382743
Dangerous builds = 1212299
write_restart  s20e500Ne5.rst
PPPM initialization ...
  using 12-bit tables for long-range coulomb (../kspace.cpp:321)
  G vector (1/distance) = 0.242249
  grid = 36 36 80
  stencil order = 5
  estimated absolute RMS force accuracy = 0.000363085
  estimated relative force accuracy = 1.09342e-06
  using single precision FFTs
  3d grid and FFT values/proc = 3840 720
WARNING: More than one compute ke/atom (../compute_ke_atom.cpp:55)
WARNING: More than one compute ke/atom (../compute_ke_atom.cpp:55)
Total wall time: 60:17:45
